# vtk DataFile Version 2.0
Gerris simulation version 1.3.2 (131206-155120)
ASCII
DATASET UNSTRUCTURED_GRID

POINTS 50740 float
-0.5 0.25 0.25
-0.25 0.25 0.25
-0.5 0.5 0.25
-0.25 0.5 0.25
-0.5 0.25 0.5
-0.25 0.25 0.5
-0.5 0.5 0.5
-0.25 0.5 0.5
0 0.25 0.25
0 0.5 0.25
0 0.25 0.5
0 0.5 0.5
-0.5 0 0.25
-0.25 0 0.25
-0.5 0 0.5
-0.25 0 0.5
0 0 0.25
0 0 0.5
-0.5 0.25 0
-0.25 0.25 0
-0.5 0.5 0
-0.25 0.5 0
0 0.25 0
0 0.5 0
-0.5 0 0
-0.25 0 0
0 0 0
0.25 0.25 0.25
0.25 0.5 0.25
0.25 0.25 0.5
0.25 0.5 0.5
0.5 0.25 0.25
0.5 0.5 0.25
0.5 0.25 0.5
0.5 0.5 0.5
0.25 0 0.25
0.25 0 0.5
0.5 0 0.25
0.5 0 0.5
0.25 0.25 0
0.25 0.5 0
0.5 0.25 0
0.5 0.5 0
0.25 0 0
0.5 0 0
-0.5 -0.25 0.25
-0.25 -0.25 0.25
-0.5 -0.25 0.5
-0.25 -0.25 0.5
0 -0.25 0.25
0 -0.25 0.5
-0.5 -0.5 0.25
-0.25 -0.5 0.25
-0.5 -0.5 0.5
-0.25 -0.5 0.5
0 -0.5 0.25
0 -0.5 0.5
-0.5 -0.25 0
-0.25 -0.25 0
0 -0.25 0
-0.5 -0.5 0
-0.25 -0.5 0
0 -0.5 0
0.25 -0.25 0.25
0.25 -0.25 0.5
0.5 -0.25 0.25
0.5 -0.25 0.5
0.25 -0.5 0.25
0.25 -0.5 0.5
0.5 -0.5 0.25
0.5 -0.5 0.5
0.25 -0.25 0
0.5 -0.25 0
0.25 -0.5 0
0.5 -0.5 0
-0.5 0.375 -0.125
-0.375 0.375 -0.125
-0.5 0.5 -0.125
-0.375 0.5 -0.125
-0.5 0.375 0
-0.375 0.375 0
-0.375 0.5 0
-0.25 0.375 -0.125
-0.25 0.5 -0.125
-0.25 0.375 0
-0.5 0.25 -0.125
-0.375 0.25 -0.125
-0.375 0.25 0
-0.25 0.25 -0.125
-0.5 0.375 -0.25
-0.375 0.375 -0.25
-0.5 0.5 -0.25
-0.375 0.5 -0.25
-0.25 0.375 -0.25
-0.25 0.5 -0.25
-0.5 0.25 -0.25
-0.375 0.25 -0.25
-0.25 0.25 -0.25
-0.125 0.375 -0.125
-0.125 0.5 -0.125
-0.125 0.375 0
-0.125 0.5 0
0 0.375 -0.125
0 0.5 -0.125
0 0.375 0
-0.125 0.25 -0.125
-0.125 0.25 0
0 0.25 -0.125
-0.125 0.375 -0.25
-0.125 0.5 -0.25
0 0.375 -0.25
0 0.5 -0.25
-0.125 0.25 -0.25
0 0.25 -0.25
-0.5 0.125 -0.125
-0.375 0.125 -0.125
-0.5 0.125 0
-0.375 0.125 0
-0.25 0.125 -0.125
-0.25 0.125 0
-0.5 0 -0.125
-0.375 0 -0.125
-0.375 0 0
-0.25 0 -0.125
-0.5 0.125 -0.25
-0.375 0.125 -0.25
-0.25 0.125 -0.25
-0.5 0 -0.25
-0.375 0 -0.25
-0.25 0 -0.25
-0.125 0.125 -0.125
-0.125 0.125 0
0 0.125 -0.125
0 0.125 0
-0.125 0 -0.125
-0.125 0 0
0 0 -0.125
-0.125 0.125 -0.25
0 0.125 -0.25
-0.125 0 -0.25
0 0 -0.25
-0.5 0.375 -0.375
-0.375 0.375 -0.375
-0.5 0.5 -0.375
-0.375 0.5 -0.375
-0.25 0.375 -0.375
-0.25 0.5 -0.375
-0.5 0.25 -0.375
-0.375 0.25 -0.375
-0.25 0.25 -0.375
-0.5 0.375 -0.5
-0.375 0.375 -0.5
-0.5 0.5 -0.5
-0.375 0.5 -0.5
-0.25 0.375 -0.5
-0.25 0.5 -0.5
-0.5 0.25 -0.5
-0.375 0.25 -0.5
-0.375 0.3125 -0.4375
-0.3125 0.3125 -0.4375
-0.375 0.375 -0.4375
-0.3125 0.375 -0.4375
-0.375 0.3125 -0.375
-0.3125 0.3125 -0.375
-0.3125 0.375 -0.375
-0.25 0.3125 -0.4375
-0.25 0.375 -0.4375
-0.25 0.3125 -0.375
-0.375 0.25 -0.4375
-0.3125 0.25 -0.4375
-0.3125 0.25 -0.375
-0.25 0.25 -0.4375
-0.375 0.3125 -0.5
-0.3125 0.3125 -0.5
-0.3125 0.375 -0.5
-0.25 0.3125 -0.5
-0.3125 0.25 -0.5
-0.25 0.25 -0.5
-0.125 0.375 -0.375
-0.125 0.5 -0.375
0 0.375 -0.375
0 0.5 -0.375
-0.25 0.3125 -0.3125
-0.1875 0.3125 -0.3125
-0.25 0.375 -0.3125
-0.1875 0.375 -0.3125
-0.25 0.3125 -0.25
-0.1875 0.3125 -0.25
-0.1875 0.375 -0.25
-0.125 0.3125 -0.3125
-0.125 0.375 -0.3125
-0.125 0.3125 -0.25
-0.25 0.25 -0.3125
-0.1875 0.25 -0.3125
-0.1875 0.25 -0.25
-0.125 0.25 -0.3125
-0.1875 0.3125 -0.375
-0.1875 0.375 -0.375
-0.125 0.3125 -0.375
-0.1875 0.25 -0.375
-0.125 0.25 -0.375
-0.0625 0.3125 -0.3125
-0.0625 0.375 -0.3125
-0.0625 0.3125 -0.25
-0.0625 0.375 -0.25
0 0.3125 -0.3125
0 0.375 -0.3125
0 0.3125 -0.25
-0.0625 0.25 -0.3125
-0.0625 0.25 -0.25
0 0.25 -0.3125
-0.0625 0.3125 -0.375
-0.0625 0.375 -0.375
0 0.3125 -0.375
-0.0625 0.25 -0.375
0 0.25 -0.375
-0.125 0.375 -0.5
-0.125 0.5 -0.5
0 0.375 -0.5
0 0.5 -0.5
-0.1875 0.3125 -0.4375
-0.1875 0.375 -0.4375
-0.125 0.3125 -0.4375
-0.125 0.375 -0.4375
-0.1875 0.25 -0.4375
-0.125 0.25 -0.4375
-0.1875 0.3125 -0.5
-0.1875 0.375 -0.5
-0.125 0.3125 -0.5
-0.1875 0.25 -0.5
-0.125 0.25 -0.5
-0.0625 0.3125 -0.4375
-0.0625 0.375 -0.4375
0 0.3125 -0.4375
0 0.375 -0.4375
-0.0625 0.25 -0.4375
0 0.25 -0.4375
-0.0625 0.3125 -0.5
-0.0625 0.375 -0.5
0 0.3125 -0.5
-0.0625 0.25 -0.5
0 0.25 -0.5
-0.5 0.125 -0.375
-0.375 0.125 -0.375
-0.375 0.1875 -0.3125
-0.3125 0.1875 -0.3125
-0.375 0.25 -0.3125
-0.3125 0.25 -0.3125
-0.375 0.1875 -0.25
-0.3125 0.1875 -0.25
-0.3125 0.25 -0.25
-0.25 0.1875 -0.3125
-0.25 0.1875 -0.25
-0.375 0.125 -0.3125
-0.3125 0.125 -0.3125
-0.3125 0.125 -0.25
-0.25 0.125 -0.3125
-0.375 0.1875 -0.375
-0.3125 0.1875 -0.375
-0.25 0.1875 -0.375
-0.3125 0.125 -0.375
-0.25 0.125 -0.375
-0.5 0 -0.375
-0.375 0 -0.375
-0.375 0.0625 -0.3125
-0.3125 0.0625 -0.3125
-0.375 0.0625 -0.25
-0.3125 0.0625 -0.25
-0.25 0.0625 -0.3125
-0.25 0.0625 -0.25
-0.375 0 -0.3125
-0.3125 0 -0.3125
-0.3125 0 -0.25
-0.25 0 -0.3125
-0.375 0.0625 -0.375
-0.3125 0.0625 -0.375
-0.25 0.0625 -0.375
-0.3125 0 -0.375
-0.25 0 -0.375
-0.5 0.125 -0.5
-0.375 0.125 -0.5
-0.375 0.1875 -0.4375
-0.3125 0.1875 -0.4375
-0.25 0.1875 -0.4375
-0.375 0.125 -0.4375
-0.3125 0.125 -0.4375
-0.3125 0.15625 -0.40625
-0.28125 0.15625 -0.40625
-0.3125 0.1875 -0.40625
-0.28125 0.1875 -0.40625
-0.3125 0.15625 -0.375
-0.28125 0.15625 -0.375
-0.28125 0.1875 -0.375
-0.25 0.15625 -0.40625
-0.25 0.1875 -0.40625
-0.25 0.15625 -0.375
-0.3125 0.125 -0.40625
-0.28125 0.125 -0.40625
-0.28125 0.125 -0.375
-0.25 0.125 -0.40625
-0.3125 0.15625 -0.4375
-0.28125 0.15625 -0.4375
-0.28125 0.1875 -0.4375
-0.25 0.15625 -0.4375
-0.28125 0.125 -0.4375
-0.25 0.125 -0.4375
-0.375 0.1875 -0.5
-0.3125 0.1875 -0.5
-0.3125 0.21875 -0.46875
-0.28125 0.21875 -0.46875
-0.3125 0.25 -0.46875
-0.28125 0.25 -0.46875
-0.3125 0.21875 -0.4375
-0.28125 0.21875 -0.4375
-0.28125 0.25 -0.4375
-0.25 0.21875 -0.46875
-0.25 0.25 -0.46875
-0.25 0.21875 -0.4375
-0.3125 0.1875 -0.46875
-0.28125 0.1875 -0.46875
-0.25 0.1875 -0.46875
-0.3125 0.21875 -0.5
-0.28125 0.21875 -0.5
-0.28125 0.25 -0.5
-0.25 0.21875 -0.5
-0.28125 0.1875 -0.5
-0.25 0.1875 -0.5
-0.3125 0.125 -0.5
-0.3125 0.15625 -0.46875
-0.28125 0.15625 -0.46875
-0.25 0.15625 -0.46875
-0.3125 0.125 -0.46875
-0.28125 0.125 -0.46875
-0.25 0.125 -0.46875
-0.3125 0.15625 -0.5
-0.28125 0.15625 -0.5
-0.25 0.15625 -0.5
-0.28125 0.125 -0.5
-0.25 0.125 -0.5
-0.5 0 -0.5
-0.375 0 -0.5
-0.375 0.0625 -0.4375
-0.3125 0.0625 -0.4375
-0.3125 0.09375 -0.40625
-0.28125 0.09375 -0.40625
-0.3125 0.09375 -0.375
-0.28125 0.09375 -0.375
-0.25 0.09375 -0.40625
-0.25 0.09375 -0.375
-0.3125 0.0625 -0.40625
-0.28125 0.0625 -0.40625
-0.28125 0.0625 -0.375
-0.25 0.0625 -0.40625
-0.3125 0.09375 -0.4375
-0.28125 0.09375 -0.4375
-0.25 0.09375 -0.4375
-0.28125 0.0625 -0.4375
-0.25 0.0625 -0.4375
-0.375 0 -0.4375
-0.3125 0 -0.4375
-0.3125 0.03125 -0.40625
-0.28125 0.03125 -0.40625
-0.3125 0.03125 -0.375
-0.28125 0.03125 -0.375
-0.25 0.03125 -0.40625
-0.25 0.03125 -0.375
-0.3125 0 -0.40625
-0.28125 0 -0.40625
-0.28125 0 -0.375
-0.25 0 -0.40625
-0.3125 0.03125 -0.4375
-0.28125 0.03125 -0.4375
-0.25 0.03125 -0.4375
-0.28125 0 -0.4375
-0.25 0 -0.4375
-0.375 0.0625 -0.5
-0.3125 0.0625 -0.5
-0.3125 0.09375 -0.46875
-0.28125 0.09375 -0.46875
-0.25 0.09375 -0.46875
-0.3125 0.0625 -0.46875
-0.28125 0.0625 -0.46875
-0.25 0.0625 -0.46875
-0.3125 0.09375 -0.5
-0.28125 0.09375 -0.5
-0.25 0.09375 -0.5
-0.28125 0.0625 -0.5
-0.25 0.0625 -0.5
-0.3125 0 -0.5
-0.3125 0.03125 -0.46875
-0.28125 0.03125 -0.46875
-0.25 0.03125 -0.46875
-0.3125 0 -0.46875
-0.28125 0 -0.46875
-0.25 0 -0.46875
-0.3125 0.03125 -0.5
-0.28125 0.03125 -0.5
-0.25 0.03125 -0.5
-0.28125 0 -0.5
-0.25 0 -0.5
-0.1875 0.1875 -0.3125
-0.1875 0.1875 -0.25
-0.125 0.1875 -0.3125
-0.125 0.1875 -0.25
-0.1875 0.125 -0.3125
-0.1875 0.125 -0.25
-0.125 0.125 -0.3125
-0.1875 0.1875 -0.375
-0.125 0.1875 -0.375
-0.25 0.15625 -0.34375
-0.21875 0.15625 -0.34375
-0.25 0.1875 -0.34375
-0.21875 0.1875 -0.34375
-0.25 0.15625 -0.3125
-0.21875 0.15625 -0.3125
-0.21875 0.1875 -0.3125
-0.1875 0.15625 -0.34375
-0.1875 0.1875 -0.34375
-0.1875 0.15625 -0.3125
-0.25 0.125 -0.34375
-0.21875 0.125 -0.34375
-0.21875 0.125 -0.3125
-0.1875 0.125 -0.34375
-0.21875 0.15625 -0.375
-0.21875 0.1875 -0.375
-0.1875 0.15625 -0.375
-0.21875 0.125 -0.375
-0.1875 0.125 -0.375
-0.15625 0.15625 -0.34375
-0.15625 0.1875 -0.34375
-0.15625 0.15625 -0.3125
-0.15625 0.1875 -0.3125
-0.125 0.15625 -0.34375
-0.125 0.1875 -0.34375
-0.125 0.15625 -0.3125
-0.15625 0.125 -0.34375
-0.15625 0.125 -0.3125
-0.125 0.125 -0.34375
-0.15625 0.15625 -0.375
-0.15625 0.1875 -0.375
-0.125 0.15625 -0.375
-0.15625 0.125 -0.375
-0.125 0.125 -0.375
-0.0625 0.1875 -0.3125
-0.0625 0.1875 -0.25
0 0.1875 -0.3125
0 0.1875 -0.25
-0.0625 0.125 -0.3125
-0.0625 0.125 -0.25
0 0.125 -0.3125
-0.0625 0.1875 -0.375
0 0.1875 -0.375
-0.09375 0.15625 -0.34375
-0.09375 0.1875 -0.34375
-0.09375 0.15625 -0.3125
-0.09375 0.1875 -0.3125
-0.0625 0.15625 -0.34375
-0.0625 0.1875 -0.34375
-0.0625 0.15625 -0.3125
-0.09375 0.125 -0.34375
-0.09375 0.125 -0.3125
-0.0625 0.125 -0.34375
-0.09375 0.15625 -0.375
-0.09375 0.1875 -0.375
-0.0625 0.15625 -0.375
-0.09375 0.125 -0.375
-0.0625 0.125 -0.375
0 0.125 -0.375
-0.1875 0.0625 -0.3125
-0.1875 0.0625 -0.25
-0.125 0.0625 -0.3125
-0.125 0.0625 -0.25
-0.1875 0 -0.3125
-0.1875 0 -0.25
-0.125 0 -0.3125
-0.25 0.09375 -0.34375
-0.21875 0.09375 -0.34375
-0.25 0.09375 -0.3125
-0.21875 0.09375 -0.3125
-0.1875 0.09375 -0.34375
-0.1875 0.09375 -0.3125
-0.25 0.0625 -0.34375
-0.21875 0.0625 -0.34375
-0.21875 0.0625 -0.3125
-0.1875 0.0625 -0.34375
-0.21875 0.09375 -0.375
-0.1875 0.09375 -0.375
-0.21875 0.0625 -0.375
-0.1875 0.0625 -0.375
-0.15625 0.09375 -0.34375
-0.15625 0.09375 -0.3125
-0.125 0.09375 -0.34375
-0.125 0.09375 -0.3125
-0.15625 0.0625 -0.34375
-0.15625 0.0625 -0.3125
-0.125 0.0625 -0.34375
-0.15625 0.09375 -0.375
-0.125 0.09375 -0.375
-0.15625 0.0625 -0.375
-0.125 0.0625 -0.375
-0.25 0.03125 -0.34375
-0.21875 0.03125 -0.34375
-0.25 0.03125 -0.3125
-0.21875 0.03125 -0.3125
-0.1875 0.03125 -0.34375
-0.1875 0.03125 -0.3125
-0.25 0 -0.34375
-0.21875 0 -0.34375
-0.21875 0 -0.3125
-0.1875 0 -0.34375
-0.21875 0.03125 -0.375
-0.1875 0.03125 -0.375
-0.21875 0 -0.375
-0.1875 0 -0.375
-0.15625 0.03125 -0.34375
-0.15625 0.03125 -0.3125
-0.125 0.03125 -0.34375
[...]
POINT_DATA 50740
SCALARS U float
LOOKUP_TABLE default
1
1.00059
1
1.00054
1
1.00046
1
1.00043
1.00064
1.00061
1.00053
1.00051
1
1.00063
1
1.00048
1.00066
1.00054
1
1.00124
1
1.001
1.00106
1.00095
1
1.0016
1.0012
1.00037
1.00037
1.00036
1.00036
1.00013
1.00015
1.0002
1.0002
1.00036
1.00036
1.00012
1.0002
1.00034
1.00039
1.00007
1.0001
1.00025
1.00004
1
1.00058
1
1.00045
1.00062
1.00052
1
1.00053
1
1.00042
1.00059
1.0005
1
1.00119
1.00102
1
1.00096
1.00089
1.00037
1.00036
1.00014
1.0002
1.00037
1.00036
1.00017
1.00021
1.00035
1.00008
1.00036
1.00013
1
1.0008
1
1.00076
1
1.00056
1.0005
1.00158
1.00145
1.00112
1
1.00089
1.00062
1.00199
1
1.00106
1
1.001
1.00229
1.00203
1
1.00104
1.00335
1.00185
1.00169
1.00106
1.00097
1.00127
1.00121
1.001
1.00237
1.00115
1.00142
1.00281
1.00236
1.00155
1.00152
1.00444
1.00167
1
1.001
1
1.00071
1.00257
1.00142
1
1.00108
1.0008
1.0029
1
1.00066
1.00488
1
1.00048
1.00579
1.00315
1.00128
1.00157
1.00113
1.00357
1.0014
1.00165
1.00745
1.00134
1.00945
1.00095
1
1.00121
1
1.00122
1.0033
1.00267
1
1.00054
1.0051
1
1.00118
1
1.00132
1.0037
1.00299
1
0.999371
1.00057
1.002
1.00119
1.00234
1.00087
1.00254
1.00225
1.00459
1.0035
1.0042
0.999953
1.00084
1.00282
1.00583
1.00027
1.00186
1.00244
1.00469
1.00012
1.00523
1.00424
1.00312
1.00181
1.00182
1.00351
1.00464
1.00279
1.00316
1.00282
1.00322
1.00255
1.00453
1.00353
1.00362
1.00423
1.00648
1.00389
1.00629
1.0061
1.00377
1.00587
1.00977
1.00926
1.0031
1.0026
1.00262
1.00218
1.00149
1.00168
1.00161
1.00373
1.00305
1.00131
1.00368
1.00303
1.00138
1.00424
1.00095
1.00511
1.00351
1.00168
1.00194
1.00748
1.00409
1.00713
1.00468
1.01469
1.01318
1.00807
1.0044
1.00769
1.01732
1.01515
1.00403
1.00321
1.00147
1.00174
1.00439
1.00008
1.0041
1.00339
1.00127
1.00348
0.999655
1
0.997144
0.999847
1.00174
1.00079
1.00251
1.00085
1.00249
1.0022
1.00482
1.00412
0.998904
1.00105
1.00277
1.00571
0.99884
1.00046
1.00632
0.997446
1.00654
1
0.994055
0.998085
1.00033
1.00057
1.00295
1.00628
1.00534
0.997266
0.999976
1.00313
1.00646
0.9956
0.994405
1.00572
0.992505
1.00383
1
0.986716
0.995942
0.995589
1.0026
0.99193
0.983654
0.994287
0.998571
0.998024
1.00124
0.998953
1.00269
1.00339
1.00351
1.00446
1.00643
0.99055
0.994775
1.00199
1.00083
0.989622
0.990535
0.999094
0.994719
0.980112
0.979035
0.993043
0.992925
0.997368
0.999733
1.00048
1.00301
0.998215
1.00122
1.00334
1.00444
1.00553
1.00422
0.994257
0.994072
0.998206
0.996522
0.999463
1.00268
1.00363
0.993344
0.995537
0.975202
0.986842
0.982475
0.978271
0.979428
0.964556
0.942232
0.984063
0.980115
0.971297
0.959443
0.92644
1
0.974019
0.987983
0.971983
0.986872
0.991164
0.995926
1.00103
0.998404
1.00613
0.983194
0.988087
1.00006
0.996016
0.977819
0.970414
0.968606
0.963711
0.961365
0.984037
0.963859
0.980688
0.984997
0.993455
0.999115
0.992351
1.00477
0.978182
0.982261
0.998166
0.98795
0.967921
0.957202
0.950845
0.949532
0.933397
0.980367
0.957491
0.972082
0.948567
0.915849
0.964737
0.93911
0.904461
0.966346
0.941415
0.890711
0.931461
0.877213
0.946957
0.960073
0.930332
0.887264
0.955408
0.918925
0.859026
0.952224
0.922344
0.858543
0.910757
0.828605
1.00934
1.00503
1.00887
1.00594
1.01366
1.00617
1.01261
1.01755
1.0161
1.00585
1.0109
1.00557
1.00951
1.00527
1.00838
1.00708
1.0153
1.01345
1.0115
1.00613
1.01308
1.00969
1.01901
1.01403
1.01194
1.02253
1.01657
1.02998
1.01693
1.01297
1.01112
1.00911
1.01428
1.01248
1.01074
1.02113
1.01314
1.01773
1.02615
1.01682
1.01995
1.03538
1.026
1.00406
1.00372
1.00077
1.0015
1.00509
1.00439
0.999871
1.00428
0.999039
1.00945
1.00833
1.00766
1.00647
1.00413
1.00417
1.00458
1.01151
1.00885
1.00408
1.01106
1.01019
1.00368
1.01243
1.00308
0.995686
1.01805
1.00689
1.01666
1.00845
1.02036
1.00762
1.01872
1.00606
1.01507
1.006
1.01093
1.02275
1.01586
1.006
1.0162
1.01217
1.02635
1.01961
1.03627
1.02123
1.0416
1.02556
1.01525
1.0212
1.01464
1.03015
1.01736
1.02424
1.0433
1.03124
1.04959
1.03604
1.00557
1.0168
1.00637
1.01279
1.02943
1.0192
1.00514
1.01746
1.01341
1.03089
1.02105
1.04707
1.02081
1.05137
1.03391
1.01845
1.02675
1.01769
1.03554
1.01954
1.02782
1.0589
1.04109
1.06595
1.04348
1.0053
1.0048
0.998903
1.00115
1.00525
1.0052
0.998432
1.01316
1.00992
1.00366
1.00519
1.01387
1.01098
1.00324
1.01433
1.00213
1.01552
1.00118
0.992406
1.01459
1.01148
1.00248
1.00528
1.01502
1.01199
1.00172
1.01552
0.999687
1.01468
0.998192
0.99118
1.00496
1.0108
1.00547
1.00885
1.00571
1.00969
1.00744
1.01678
1.01223
1.01366
1.01329
1.02384
1.01266
1.01026
1.02164
1.01406
1.03377
1.01895
1.01172
1.01317
1.00952
1.01525
1.01122
1.01268
1.02789
1.02117
1.02483
1.01393
1.01888
1.04156
1.02814
1.01489
1.03551
1.0173
1.04984
1.01253
1.05782
0.999833
1.01114
1.03012
1.01371
1.03019
1.0161
1.02939
1.0252
1.05323
1.04667
1.04268
1.00857
1.03189
1.03357
1.0634
1.00618
1.0318
1.03517
1.07298
1.02761
1.08187
1.0438
1.02995
1.03447
1.03956
1.02902
1.032
1.02625
1.02851
1.02434
1.03978
1.03497
1.03077
1.03991
1.04682
1.03268
1.04737
1.05311
1.03966
1.05413
1.06478
1.06639
1.03535
1.02996
1.02687
1.02305
1.02879
1.02495
1.02297
1.04158
1.03069
1.03263
1.04702
1.03687
1.0346
1.05551
1.03925
1.07674
1.0431
1.07273
1.05347
1.07507
1.06027
1.09588
1.09945
1.10574
1.06728
1.10595
1.06787
1.08667
1.0631
1.07617
1.05832
1.07131
1.06298
1.10259
1.08923
1.0843
1.07264
1.09547
1.07964
1.1205
1.07742
1.10734
1.08936
1.12733
1.11923
1.16096
1.10731
1.08987
1.08578
1.0739
1.1031
1.09051
1.08726
1.1284
1.09767
1.12245
1.12885
1.10584
1.12009
1.16466
1.1411
1.06378
1.0484
1.04193
1.03652
1.07786
1.04661
1.08663
1.05992
1.05102
1.09581
1.08286
1.07904
1.06942
1.08387
1.0752
1.07082
1.11029
1.08866
1.09044
1.11294
1.09629
1.10052
1.12733
1.10806
1.06681
1.06084
1.05754
1.05285
1.04744
1.04647
1.04427
1.0691
1.06224
1.0484
1.07819
1.06882
1.05061
1.08047
1.0502
1.01345
1.01077
1.02596
1.016
1.01344
1.0472
1.01304
1.01128
1.02735
1.01067
1.05116
1.0306
1.01508
1.02204
1.01416
1.05963
1.0345
1.03289
1.01623
1.02315
1.06968
1.03594
0.991305
1.00783
1.02912
1.01375
1.02712
1.0133
1.02955
1.02392
1.05356
1.04049
1.04579
1.00192
1.03076
1.07368
1.00237
1.03109
1.03032
1.06515
1.02536
1.10305
0.973564
0.978425
0.986495
0.994206
0.986877
0.996529
1.00362
0.992938
0.960633
0.959914
0.989434
0.968484
0.960251
0.955268
0.984788
0.955571
0.922275
0.891361
1.02762
1.10818
1.00857
1.0239
1.05825
1.02971
1.06014
1.0297
1.05356
1.05239
1.09937
1.09058
1.01809
1.05395
1.05474
1.10432
1.01809
1.0645
1.0679
1.12397
1.05816
1.13577
0.98666
1.0176
1.05779
1.02806
1.05821
1.02919
1.06006
1.05222
1.10462
1.08837
1.09093
1.00714
1.06247
1.13463
1.00601
1.06278
1.0642
1.13595
1.04383
1.19431
0.952089
0.968149
0.974255
0.990697
0.980711
0.999402
1.01028
0.996662
0.929923
0.943007
0.988525
0.964708
0.923466
0.922582
0.971116
0.937121
0.882268
0.880903
1.05767
1.17538
1.02399
1.20529
0.988527
1.03812
1.10169
1.05315
1.10881
1.06007
1.10754
1.09855
1.19429
1.16447
1.15501
1.0231
1.10657
1.11653
1.23405
1.01618
1.09606
1.11907
1.23531
1.09154
1.27142
0.944848
0.976772
0.966891
0.994995
0.980685
1.01076
1.02717
1.0186
1.04083
0.922806
0.93958
0.994351
0.985459
0.909012
0.931351
0.962824
0.966651
0.897424
0.936107
1.1062
1.11559
1.26047
1.19034
1.09714
1.11464
1.2725
1.08698
1.29106
1.07233
1.30105
0.985828
0.989854
0.996872
1.00446
0.988238
0.995306
1.00582
1.00286
1.01205
0.974784
0.970056
0.975585
0.983417
0.988636
1.0031
1.00069
0.967745
0.970594
1.02907
1.03062
1.07501
1.04918
1.01132
1.12121
1.02573
1.03091
1.07352
1.00006
1.01654
1.05128
1.0274
1.05083
1.02019
1.05915
1.05204
1.09249
1.07426
1.09811
1.00569
1.04774
1.06627
1.11339
1.01289
1.04855
1.04962
1.08998
1.04276
1.10685
0.95456
0.936219
0.912051
0.934336
0.891683
0.816147
0.948869
0.931523
0.901533
0.883997
0.796441
0.958628
0.968735
0.983445
1.00089
0.973438
0.989725
1.00833
0.997762
1.01834
0.933811
0.925631
0.939475
0.943818
0.952978
0.993452
0.975197
0.900213
0.893897
1.05429
1.06524
1.17306
1.11213
0.986405
1.03682
1.10927
1.05853
1.10652
1.0533
1.10922
1.09937
1.19339
1.15451
1.16513
1.01512
1.09314
1.22962
1.02035
1.10179
1.11367
1.21758
1.05442
1.25648
1.03111
1.18682
0.921176
0.998244
1.08697
1.0427
1.11132
1.22961
1.17994
0.95379
1.02435
1.26045
0.976143
1.07991
1.10896
1.23754
1.01331
1.27122
0.893783
0.869069
0.835538
0.853754
0.810325
0.755268
0.864099
0.829078
0.761562
0.756504
0.656555
0.744545
0.940827
1.0291
1.17947
0.866536
0.957154
1.09891
0.865475
0.870695
1.01184
1.10389
1.07378
1.15842
1.06112
1.13283
1.16138
1.22846
1.24305
1.20455
0.949895
0.956715
1.10428
1.07726
0.962557
1.06083
1.15545
1.21141
0.805226
0.943942
0.623443
0.870097
0.808038
0.993124
1.06616
0.949592
1.13919
0.790298
0.751677
1.02803
0.915347
0.747069
0.560035
0.623829
0.472338
0.566845
0.852208
0.854215
0.88633
0.876433
0.852088
0.818085
0.819846
0.817555
0.795403
0.744839
0.790041
0.694276
0.699638
0.644008
0.927189
1.08214
0.905165
1.09032
0.552155
0.764985
0.715314
0.942171
1.01635
0.891937
1.09053
0.739672
0.698571
1.00467
0.886414
0.587799
0.421406
0.526756
0.399951
0.516086
0.518826
0.725834
0.689035
0.916177
1.0012
0.887079
1.08623
0.711995
0.683987
0.997743
0.892175
0.535491
0.387984
0.512888
0.380792
0.514004
0.857618
0.836289
0.916686
0.935238
0.887507
0.876491
0.96294
0.801995
0.79855
0.737079
0.675609
0.827729
0.808901
0.907536
0.769702
0.684117
0.606672
0.780219
0.932421
1.02508
1.03938
1.14893
1.20252
1.25847
0.825457
0.730371
0.87486
0.902284
1.01488
1.1424
1.20757
0.702756
0.864421
0.452341
0.681674
0.449384
0.326354
0.537892
0.3388
0.233684
0.61628
0.406909
0.288241
0.288809
0.190165
0.753232
0.892777
1.00972
1.01883
1.14233
1.20559
1.26583
0.766725
0.692217
0.857995
0.883269
1.00161
1.14226
1.20749
0.685979
0.768492
0.414795
0.600147
0.391492
0.276812
0.433568
0.26938
0.174698
0.584014
0.387568
0.272678
0.264198
0.175865
0.450287
0.611378
0.355596
0.495884
0.278461
0.174209
0.453876
0.252608
0.155245
0.403969
0.223416
0.12668
0.195086
0.105713
0.547147
0.313328
0.434976
0.238389
0.146376
0.416077
0.229349
0.14247
0.334462
0.179406
0.0957156
0.169203
0.090923
0.52848
0.30846
0.382798
0.200907
0.108369
0.332028
0.170331
0.0854057
0.361627
0.193549
0.106928
0.161195
0.0820091
0.259597
0.309245
0.153174
0.0741462
0.286462
0.141915
0.0684908
0.284028
0.142408
0.0690123
0.129818
0.0620856
0.939941
0.942953
0.973089
0.989388
0.958748
0.906792
0.885705
0.873472
0.936063
0.939534
0.985325
0.955101
0.880378
0.867634
1.01252
1.16485
0.925328
0.946472
0.966972
0.994395
0.934547
0.955345
1.00315
0.982627
1.02182
0.883684
0.888255
0.913376
0.91611
0.938053
0.985635
0.959996
0.890471
0.907469
1.07511
1.09882
1.24672
1.17583
1.01397
1.27267
1.05066
1.08869
1.20452
0.996461
1.1961
1.00377
1.11794
0.889071
0.953207
1.01931
1.00814
1.07477
1.13214
1.1414
0.89827
0.95652
1.09473
0.946418
1.00948
1.06086
1.1065
0.93992
1.05366
0.856543
0.809174
0.738512
0.806294
0.731605
0.618489
0.848987
0.802655
0.732753
0.722648
0.6067
0.816861
0.794623
0.757993
0.750037
0.68157
0.613103
0.805992
0.790806
0.770986
0.679023
0.619534
0.751271
0.882946
0.994858
1.01364
1.14279
1.21092
1.27195
0.752252
0.68404
0.450354
0.882623
0.905091
1.14332
0.927559
0.666857
0.582444
0.431534
0.587708
0.393695
0.27101
0.423165
0.271512
0.187614
0.591402
0.394888
0.230575
0.286114
0.150556
0.786352
0.691715
0.518498
0.621914
0.427163
0.768811
0.702945
0.218234
0.63708
0.475016
0.313386
0.111157
0.652425
0.556387
0.739033
0.460349
0.37374
0.228982
0.435527
0.528005
0.313492
0.36707
0.19843
0.11568
0.310976
0.162955
0.0868121
0.372513
0.218124
0.117986
0.177511
0.0964735
0.442907
0.253587
0.283784
0.141307
0.0703418
0.256592
0.126562
0.0610211
0.283539
0.150243
0.0737123
0.131005
0.0595912
0.52753
0.36838
0.407976
0.24242
0.0979617
0.340936
0.194983
0.0735614
0.443439
0.30944
0.175442
0.245141
0.121902
0.281651
0.304277
0.162668
0.0541879
0.267619
0.139265
0.0412156
0.325015
0.210476
0.0959373
0.175812
0.0699723
0.803092
0.787867
0.870553
0.884411
0.777312
0.735632
0.692441
0.642186
0.800193
0.78605
0.878352
0.773706
0.692205
0.639529
0.785693
0.849811
0.564108
0.50758
0.787913
0.869501
0.596608
0.612093
0.674114
0.606556
0.678501
0.603015
0.531994
0.612595
0.533812
0.527008
0.444324
0.669726
0.606137
0.527251
0.532893
0.438837
0.412786
0.329596
0.31466
0.216062
0.451529
0.432046
0.349009
0.308122
1.06992
1.04554
1.05247
1.03766
1.07139
1.05059
1.05915
1.10177
1.10009
1.08746
1.05341
1.08782
1.14051
1.13041
1.06072
1.04096
1.04739
1.03485
1.03993
1.03132
1.03562
1.08489
1.04966
1.07312
1.04707
1.0444
1.11203
1.05222
1.15514
1.13596
1.13813
1.11051
1.15746
1.13044
1.16806
1.21462
1.17953
1.13166
1.19491
1.23466
1.26572
1.14926
1.1257
1.13514
1.12096
1.19033
1.14724
1.17037
1.14555
1.14289
1.19447
1.13111
1.14069
1.10475
1.10969
1.08773
1.1506
1.12114
1.12845
1.18872
1.19126
1.1816
1.12178
1.18048
1.26828
1.22282
1.14313
1.1182
1.12324
1.10093
1.13501
1.11525
1.11803
1.16704
1.14979
1.16358
1.13546
1.15219
1.16925
1.1537
1.27048
1.2611
1.1601
1.20193
1.14968
1.18734
1.12987
1.16848
1.15175
1.23805
1.225
1.20709
1.17053
1.22557
1.18521
1.2769
1.26784
1.22293
1.3131
1.30165
1.36622
1.25719
1.22651
1.21871
1.18722
1.27255
1.22801
1.23032
1.30355
1.25019
1.3171
1.32576
1.26579
1.31479
1.38904
1.36847
1.27019
1.19648
1.1923
1.16167
1.30026
1.2285
1.2296
1.3366
1.37608
1.31037
1.23129
1.29962
1.34492
1.30622
1.29913
1.21777
1.22789
1.18999
1.27149
1.20704
1.22618
1.376
1.33771
1.27014
1.24555
1.23497
1.26723
1.23304
1.385
1.43569
1.41838
1.48523
1.36722
1.31501
1.39088
1.33384
1.443
1.40383
1.5071
1.47415
1.27432
1.24487
1.29864
1.27598
1.19225
1.14705
1.21349
1.10848
1.22703
1.18759
1.20291
1.17915
1.18524
1.16815
1.17965
1.27172
1.22668
1.20581
1.19362
1.19604
1.16116
1.18796
1.14995
1.15946
1.15994
1.16403
1.15841
1.14911
1.15174
1.14842
1.15839
1.16965
1.13469
1.14989
1.16147
1.14349
1.11858
1.1076
1.32083
1.25883
1.22611
1.20287
1.37275
1.29098
1.2407
1.19555
1.14332
1.21704
1.14079
1.15286
1.16532
1.11773
1.12777
1.13482
1.16098
1.08638
1.0982
1.08275
1.08722
1.06518
1.12469
1.06078
1.13365
1.11331
1.12477
1.10566
1.14658
1.1418
1.15221
1.13033
1.15639
1.16124
1.19783
1.09465
1.08078
1.05831
1.0559
1.10028
1.05284
1.12131
1.09273
1.06806
1.14826
1.06611
1.13195
1.10685
1.11141
1.09249
1.12218
1.09846
1.10479
1.15604
1.15899
1.15446
1.12122
1.15049
1.2056
1.23886
1.09449
1.0747
1.08
1.06728
1.05695
1.05094
1.05522
1.11862
1.0622
1.10739
1.08212
1.05581
1.15353
1.05033
1.18235
1.22266
1.13238
1.13389
1.14497
1.15612
1.137
1.14686
1.14755
1.16502
1.16728
1.15673
1.1198
1.12617
1.14618
1.16276
1.13718
1.1647
1.17331
1.11633
1.16428
1.2547
1.15389
1.16628
1.15881
1.15291
1.18548
1.18082
1.16919
1.12991
1.17718
1.18237
1.17965
1.26188
1.0648
0.939684
1.22256
1.18987
1.18001
1.15751
1.22316
1.19893
1.19082
1.27376
1.2025
1.26123
1.32861
1.22223
1.30262
1.05216
0.99204
1.11437
1.17163
1.09653
1.16476
1.03821
0.962228
1.10726
1.21589
1.28336
1.206
1.27996
1.23868
1.25405
1.20949
1.29866
1.06268
1.18754
1.05843
1.1107
1.17441
1.22649
1.22547
1.24025
1.16296
1.27856
1.06693
1.13207
1.2275
1.19721
0.950956
1.02906
0.99592
0.927835
1.03664
1.11105
1.18887
1.1448
1.27458
1.2675
1.13334
1.12663
1.2706
1.16863
1.28166
1.14005
0.6856
1.0221
0.996086
1.05559
1.00013
1.35519
1.38268
1.1606
1.07494
1.21123
1.08837
1.19157
1.1675
1.16522
1.1388
1.14697
1.13607
1.13961
1.20727
1.19163
1.16209
1.24885
1.19619
1.18971
1.11442
1.12323
1.09905
1.09617
1.10409
1.09041
1.05744
1.05627
1.06857
1.11035
1.11777
1.0586
1.11628
1.10193
1.0463
1.08394
1.04226
1.23483
1.2123
1.19452
1.18591
1.29255
1.23296
1.25512
1.13816
1.15086
1.36628
1.33091
1.14014
1.13378
1.07931
1.08166
1.18715
1.1498
1.10186
1.11183
1.05998
1.24748
1.13698
1.10554
1.05692
1.10497
1.06465
1.09111
1.11574
1.07008
1.08329
1.0841
1.09904
1.07631
1.12478
1.0965
1.11399
1.15608
1.16194
1.12458
1.09027
1.13777
1.17044
1.18601
1.12461
1.09645
1.11155
1.08764
1.12302
1.0964
1.10912
1.15176
1.14964
1.13941
1.10526
1.13692
1.17648
1.16887
1.1095
1.06042
1.10859
1.12701
1.09089
1.14466
1.10752
1.1747
1.1993
1.12658
1.09151
1.14545
1.16905
1.1955
1.14804
1.10715
1.1445
1.10678
1.20433
1.19098
1.14899
1.10905
1.14496
1.20752
1.19531
1.08617
1.04994
1.04546
1.03522
1.14179
1.05194
1.08692
1.05281
1.04154
1.13434
1.09666
1.12545
1.09557
1.11361
1.08654
1.11398
1.17467
1.15533
1.14422
1.13304
1.09775
1.11058
1.17434
1.13999
1.08094
1.06502
1.08134
1.06581
1.0456
1.0435
1.0487
1.09476
1.09686
1.0433
1.07772
1.06423
1.04306
1.08515
1.03491
1.24228
1.23994
1.2569
1.18322
1.19503
1.15877
1.26771
1.21194
1.22494
1.31129
1.29692
1.29764
1.20767
1.29731
1.25787
1.15344
1.25205
1.21107
1.21329
1.18104
1.23079
1.21021
1.20165
1.26066
1.22413
1.27088
1.24111
1.24947
1.09572
1.07113
1.28856
1.3016
1.32232
1.22268
1.30877
1.26542
1.22114
1.07545
1.34576
1.23769
1.33795
1.23626
1.07373
1.27125
1.26809
1.25342
1.27077
1.01411
0.993563
1.30247
1.29508
1.28785
1.009
0.991781
1.20102
1.17327
1.20657
1.19625
1.18403
1.17203
1.18454
1.1823
1.16641
1.19585
1.16942
1.22604
1.22048
1.20305
1.07187
1.09679
1.17054
1.17251
1.15968
1.15788
1.16664
1.16273
1.15294
1.15018
1.14921
1.18679
1.18714
1.1813
1.12766
1.15705
1.22237
1.19571
1.17397
1.16905
1.20094
1.18866
1.15685
1.19722
1.16412
1.17639
1.24993
1.23031
1.2438
1.21702
1.18124
1.21804
1.28432
1.2596
1.21398
1.23802
1.22179
1.0042
1.0507
1.27361
1.25521
1.00613
1.05214
1.20824
1.21197
1.20178
1.19362
1.11162
1.16348
1.237
1.23679
1.22542
1.11312
1.1706
1.04615
0.972167
0.802555
0.702364
1.24341
1.26382
1.19163
1.27046
1.108
1.28458
1.17872
1.02893
1.11281
0.800029
1.24569
1.25717
1.0677
1.08809
0.832544
1.01867
1.25488
1.15663
1.30411
0.990507
1.22518
1.13454
0.744723
1.00916
0.730808
0.956717
1.20565
0.937087
0.762572
0.758297
0.867994
1.03177
0.608481
0.924351
0.803052
0.950733
0.497006
0.829231
0.560246
0.762143
0.445591
0.608954
0.880809
0.593944
0.837266
0.492854
0.752459
0.466434
0.60789
0.592084
0.491506
0.464356
0.956835
0.986876
0.666651
0.717331
0.965456
1.20169
1.12165
1.27879
0.953274
1.17819
1.10875
0.723091
0.964501
0.742533
0.913196
1.12458
0.895762
0.746963
0.753104
0.955246
1.16291
1.10713
1.2424
0.967229
1.14763
1.1055
0.774712
0.971856
0.812451
0.892466
1.08343
0.896161
0.772086
0.794963
0.583153
0.824504
0.612958
0.811743
0.43843
0.684507
0.454712
0.581797
0.613075
0.437471
0.455387
0.655802
0.831923
0.701676
0.852104
0.492277
0.691991
0.541649
0.656949
0.703164
0.493958
0.543332
0.727622
0.594372
0.716708
0.566473
0.764081
0.927808
0.425348
0.765089
0.746487
0.904883
0.385851
0.721888
0.372366
0.703322
0.331552
0.41369
0.706728
0.380202
0.648368
0.367025
0.660997
0.32564
0.412403
0.377964
0.365683
0.323347
0.74089
0.904199
0.366376
0.722165
0.741965
0.903515
0.357112
0.696819
0.311098
0.696874
0.300868
0.342804
0.651294
0.296726
0.580422
0.33099
0.641591
0.283222
0.341543
0.294425
0.32982
0.280936
0.54548
0.597553
0.525635
0.572162
0.345805
0.627217
0.355592
0.606065
0.288395
0.569926
0.300842
0.344954
0.356381
0.287568
0.301572
0.388406
0.631754
0.438791
0.657442
0.335292
0.571516
0.386496
0.389967
0.44002
0.336588
0.387192
0.260694
0.55799
0.278106
0.535557
0.25077
0.546054
0.272604
0.259894
0.27878
0.250111
0.273354
0.313605
0.560207
0.362201
0.584858
0.306858
0.548898
0.349172
0.314573
0.362317
0.307647
0.348773
1.27401
1.24898
1.10393
1.2395
1.25064
1.05638
1.28028
1.2408
1.08713
1.25772
1.03413
0.997274
1.17698
0.989244
1.11445
0.977359
0.987809
0.9646
1.1483
0.952213
0.941399
0.950303
1.28077
1.24727
1.07984
1.2287
1.2544
1.02377
1.29594
1.25374
1.09176
1.09835
1.03484
0.947269
1.15165
0.932087
1.07459
0.92245
0.930257
0.953196
1.155
0.935017
0.926207
0.932719
0.969751
1.08468
0.945162
1.05492
0.969952
0.945058
0.929011
1.04478
0.902825
0.929308
0.902894
0.932071
1.04363
0.923834
1.03235
0.932013
0.923882
0.892693
1.00384
0.889823
0.892923
0.890173
0.907764
1.04307
0.881373
1.01156
0.908234
0.881501
0.909944
1.04137
0.88283
0.910441
0.88306
0.873264
1.00211
0.873939
0.992672
0.873553
0.874292
0.874119
1.00039
0.874305
0.874489
0.87465
1.03365
1.06188
0.808825
0.918663
0.990795
1.14075
1.11013
1.20999
1.01992
1.13386
1.11475
0.858553
1.01026
0.907127
0.909696
1.0715