# vtk DataFile Version 2.0
Gerris simulation version 1.3.2 (131206-155120)
ASCII
DATASET UNSTRUCTURED_GRID

POINTS 54666 float
-0.5 0.25 0.25
-0.25 0.25 0.25
-0.5 0.5 0.25
-0.25 0.5 0.25
-0.5 0.25 0.5
-0.25 0.25 0.5
-0.5 0.5 0.5
-0.25 0.5 0.5
0 0.25 0.25
0 0.5 0.25
0 0.25 0.5
0 0.5 0.5
-0.5 0 0.25
-0.25 0 0.25
-0.5 0 0.5
-0.25 0 0.5
0 0 0.25
0 0 0.5
-0.5 0.25 0
-0.25 0.25 0
-0.5 0.5 0
-0.25 0.5 0
0 0.25 0
0 0.5 0
-0.5 0 0
-0.25 0 0
0 0 0
0.25 0.25 0.25
0.25 0.5 0.25
0.25 0.25 0.5
0.25 0.5 0.5
0.5 0.25 0.25
0.5 0.5 0.25
0.5 0.25 0.5
0.5 0.5 0.5
0.25 0 0.25
0.25 0 0.5
0.5 0 0.25
0.5 0 0.5
0.25 0.25 0
0.25 0.5 0
0.5 0.25 0
0.5 0.5 0
0.25 0 0
0.5 0 0
-0.5 -0.25 0.25
-0.25 -0.25 0.25
-0.5 -0.25 0.5
-0.25 -0.25 0.5
0 -0.25 0.25
0 -0.25 0.5
-0.5 -0.5 0.25
-0.25 -0.5 0.25
-0.5 -0.5 0.5
-0.25 -0.5 0.5
0 -0.5 0.25
0 -0.5 0.5
-0.5 -0.25 0
-0.25 -0.25 0
0 -0.25 0
-0.5 -0.5 0
-0.25 -0.5 0
0 -0.5 0
0.25 -0.25 0.25
0.25 -0.25 0.5
0.5 -0.25 0.25
0.5 -0.25 0.5
0.25 -0.5 0.25
0.25 -0.5 0.5
0.5 -0.5 0.25
0.5 -0.5 0.5
0.25 -0.25 0
0.5 -0.25 0
0.25 -0.5 0
0.5 -0.5 0
-0.5 0.375 -0.125
-0.375 0.375 -0.125
-0.5 0.5 -0.125
-0.375 0.5 -0.125
-0.5 0.375 0
-0.375 0.375 0
-0.375 0.5 0
-0.25 0.375 -0.125
-0.25 0.5 -0.125
-0.25 0.375 0
-0.5 0.25 -0.125
-0.375 0.25 -0.125
-0.375 0.25 0
-0.25 0.25 -0.125
-0.5 0.375 -0.25
-0.375 0.375 -0.25
-0.5 0.5 -0.25
-0.375 0.5 -0.25
-0.25 0.375 -0.25
-0.25 0.5 -0.25
-0.5 0.25 -0.25
-0.375 0.25 -0.25
-0.25 0.25 -0.25
-0.125 0.375 -0.125
-0.125 0.5 -0.125
-0.125 0.375 0
-0.125 0.5 0
0 0.375 -0.125
0 0.5 -0.125
0 0.375 0
-0.125 0.25 -0.125
-0.125 0.25 0
0 0.25 -0.125
-0.125 0.375 -0.25
-0.125 0.5 -0.25
0 0.375 -0.25
0 0.5 -0.25
-0.125 0.25 -0.25
0 0.25 -0.25
-0.5 0.125 -0.125
-0.375 0.125 -0.125
-0.5 0.125 0
-0.375 0.125 0
-0.25 0.125 -0.125
-0.25 0.125 0
-0.5 0 -0.125
-0.375 0 -0.125
-0.375 0 0
-0.25 0 -0.125
-0.5 0.125 -0.25
-0.375 0.125 -0.25
-0.25 0.125 -0.25
-0.5 0 -0.25
-0.375 0 -0.25
-0.25 0 -0.25
-0.125 0.125 -0.125
-0.125 0.125 0
0 0.125 -0.125
0 0.125 0
-0.125 0 -0.125
-0.125 0 0
0 0 -0.125
-0.125 0.125 -0.25
0 0.125 -0.25
-0.125 0 -0.25
0 0 -0.25
-0.5 0.375 -0.375
-0.375 0.375 -0.375
-0.5 0.5 -0.375
-0.375 0.5 -0.375
-0.25 0.375 -0.375
-0.25 0.5 -0.375
-0.5 0.25 -0.375
-0.375 0.25 -0.375
-0.25 0.25 -0.375
-0.5 0.375 -0.5
-0.375 0.375 -0.5
-0.5 0.5 -0.5
-0.375 0.5 -0.5
-0.25 0.375 -0.5
-0.25 0.5 -0.5
-0.5 0.25 -0.5
-0.375 0.25 -0.5
-0.375 0.3125 -0.4375
-0.3125 0.3125 -0.4375
-0.375 0.375 -0.4375
-0.3125 0.375 -0.4375
-0.375 0.3125 -0.375
-0.3125 0.3125 -0.375
-0.3125 0.375 -0.375
-0.25 0.3125 -0.4375
-0.25 0.375 -0.4375
-0.25 0.3125 -0.375
-0.375 0.25 -0.4375
-0.3125 0.25 -0.4375
-0.3125 0.25 -0.375
-0.25 0.25 -0.4375
-0.375 0.3125 -0.5
-0.3125 0.3125 -0.5
-0.3125 0.375 -0.5
-0.25 0.3125 -0.5
-0.3125 0.25 -0.5
-0.25 0.25 -0.5
-0.125 0.375 -0.375
-0.125 0.5 -0.375
0 0.375 -0.375
0 0.5 -0.375
-0.25 0.3125 -0.3125
-0.1875 0.3125 -0.3125
-0.25 0.375 -0.3125
-0.1875 0.375 -0.3125
-0.25 0.3125 -0.25
-0.1875 0.3125 -0.25
-0.1875 0.375 -0.25
-0.125 0.3125 -0.3125
-0.125 0.375 -0.3125
-0.125 0.3125 -0.25
-0.25 0.25 -0.3125
-0.1875 0.25 -0.3125
-0.1875 0.25 -0.25
-0.125 0.25 -0.3125
-0.1875 0.3125 -0.375
-0.1875 0.375 -0.375
-0.125 0.3125 -0.375
-0.1875 0.25 -0.375
-0.125 0.25 -0.375
-0.0625 0.3125 -0.3125
-0.0625 0.375 -0.3125
-0.0625 0.3125 -0.25
-0.0625 0.375 -0.25
0 0.3125 -0.3125
0 0.375 -0.3125
0 0.3125 -0.25
-0.0625 0.25 -0.3125
-0.0625 0.25 -0.25
0 0.25 -0.3125
-0.0625 0.3125 -0.375
-0.0625 0.375 -0.375
0 0.3125 -0.375
-0.0625 0.25 -0.375
0 0.25 -0.375
-0.125 0.375 -0.5
-0.125 0.5 -0.5
0 0.375 -0.5
0 0.5 -0.5
-0.1875 0.3125 -0.4375
-0.1875 0.375 -0.4375
-0.125 0.3125 -0.4375
-0.125 0.375 -0.4375
-0.1875 0.25 -0.4375
-0.125 0.25 -0.4375
-0.1875 0.3125 -0.5
-0.1875 0.375 -0.5
-0.125 0.3125 -0.5
-0.1875 0.25 -0.5
-0.125 0.25 -0.5
-0.0625 0.3125 -0.4375
-0.0625 0.375 -0.4375
0 0.3125 -0.4375
0 0.375 -0.4375
-0.0625 0.25 -0.4375
0 0.25 -0.4375
-0.0625 0.3125 -0.5
-0.0625 0.375 -0.5
0 0.3125 -0.5
-0.0625 0.25 -0.5
0 0.25 -0.5
-0.5 0.125 -0.375
-0.375 0.125 -0.375
-0.375 0.1875 -0.3125
-0.3125 0.1875 -0.3125
-0.375 0.25 -0.3125
-0.3125 0.25 -0.3125
-0.375 0.1875 -0.25
-0.3125 0.1875 -0.25
-0.3125 0.25 -0.25
-0.25 0.1875 -0.3125
-0.25 0.1875 -0.25
-0.375 0.125 -0.3125
-0.3125 0.125 -0.3125
-0.3125 0.125 -0.25
-0.25 0.125 -0.3125
-0.375 0.1875 -0.375
-0.3125 0.1875 -0.375
-0.25 0.1875 -0.375
-0.3125 0.125 -0.375
-0.25 0.125 -0.375
-0.5 0 -0.375
-0.375 0 -0.375
-0.375 0.0625 -0.3125
-0.3125 0.0625 -0.3125
-0.375 0.0625 -0.25
-0.3125 0.0625 -0.25
-0.25 0.0625 -0.3125
-0.25 0.0625 -0.25
-0.375 0 -0.3125
-0.3125 0 -0.3125
-0.3125 0 -0.25
-0.25 0 -0.3125
-0.375 0.0625 -0.375
-0.3125 0.0625 -0.375
-0.25 0.0625 -0.375
-0.3125 0 -0.375
-0.25 0 -0.375
-0.5 0.125 -0.5
-0.375 0.125 -0.5
-0.375 0.1875 -0.4375
-0.3125 0.1875 -0.4375
-0.25 0.1875 -0.4375
-0.375 0.125 -0.4375
-0.3125 0.125 -0.4375
-0.3125 0.15625 -0.40625
-0.28125 0.15625 -0.40625
-0.3125 0.1875 -0.40625
-0.28125 0.1875 -0.40625
-0.3125 0.15625 -0.375
-0.28125 0.15625 -0.375
-0.28125 0.1875 -0.375
-0.25 0.15625 -0.40625
-0.25 0.1875 -0.40625
-0.25 0.15625 -0.375
-0.3125 0.125 -0.40625
-0.28125 0.125 -0.40625
-0.28125 0.125 -0.375
-0.25 0.125 -0.40625
-0.3125 0.15625 -0.4375
-0.28125 0.15625 -0.4375
-0.28125 0.1875 -0.4375
-0.25 0.15625 -0.4375
-0.28125 0.125 -0.4375
-0.25 0.125 -0.4375
-0.375 0.1875 -0.5
-0.3125 0.1875 -0.5
-0.3125 0.21875 -0.46875
-0.28125 0.21875 -0.46875
-0.3125 0.25 -0.46875
-0.28125 0.25 -0.46875
-0.3125 0.21875 -0.4375
-0.28125 0.21875 -0.4375
-0.28125 0.25 -0.4375
-0.25 0.21875 -0.46875
-0.25 0.25 -0.46875
-0.25 0.21875 -0.4375
-0.3125 0.1875 -0.46875
-0.28125 0.1875 -0.46875
-0.25 0.1875 -0.46875
-0.3125 0.21875 -0.5
-0.28125 0.21875 -0.5
-0.28125 0.25 -0.5
-0.25 0.21875 -0.5
-0.28125 0.1875 -0.5
-0.25 0.1875 -0.5
-0.3125 0.125 -0.5
-0.3125 0.15625 -0.46875
-0.28125 0.15625 -0.46875
-0.25 0.15625 -0.46875
-0.3125 0.125 -0.46875
-0.28125 0.125 -0.46875
-0.25 0.125 -0.46875
-0.3125 0.15625 -0.5
-0.28125 0.15625 -0.5
-0.25 0.15625 -0.5
-0.28125 0.125 -0.5
-0.25 0.125 -0.5
-0.5 0 -0.5
-0.375 0 -0.5
-0.375 0.0625 -0.4375
-0.3125 0.0625 -0.4375
-0.3125 0.09375 -0.40625
-0.28125 0.09375 -0.40625
-0.3125 0.09375 -0.375
-0.28125 0.09375 -0.375
-0.25 0.09375 -0.40625
-0.25 0.09375 -0.375
-0.3125 0.0625 -0.40625
-0.28125 0.0625 -0.40625
-0.28125 0.0625 -0.375
-0.25 0.0625 -0.40625
-0.3125 0.09375 -0.4375
-0.28125 0.09375 -0.4375
-0.25 0.09375 -0.4375
-0.28125 0.0625 -0.4375
-0.25 0.0625 -0.4375
-0.375 0 -0.4375
-0.3125 0 -0.4375
-0.3125 0.03125 -0.40625
-0.28125 0.03125 -0.40625
-0.3125 0.03125 -0.375
-0.28125 0.03125 -0.375
-0.25 0.03125 -0.40625
-0.25 0.03125 -0.375
-0.3125 0 -0.40625
-0.28125 0 -0.40625
-0.28125 0 -0.375
-0.25 0 -0.40625
-0.3125 0.03125 -0.4375
-0.28125 0.03125 -0.4375
-0.25 0.03125 -0.4375
-0.28125 0 -0.4375
-0.25 0 -0.4375
-0.375 0.0625 -0.5
-0.3125 0.0625 -0.5
-0.3125 0.09375 -0.46875
-0.28125 0.09375 -0.46875
-0.25 0.09375 -0.46875
-0.3125 0.0625 -0.46875
-0.28125 0.0625 -0.46875
-0.25 0.0625 -0.46875
-0.3125 0.09375 -0.5
-0.28125 0.09375 -0.5
-0.25 0.09375 -0.5
-0.28125 0.0625 -0.5
-0.25 0.0625 -0.5
-0.3125 0 -0.5
-0.3125 0.03125 -0.46875
-0.28125 0.03125 -0.46875
-0.25 0.03125 -0.46875
-0.3125 0 -0.46875
-0.28125 0 -0.46875
-0.25 0 -0.46875
-0.3125 0.03125 -0.5
-0.28125 0.03125 -0.5
-0.25 0.03125 -0.5
-0.28125 0 -0.5
-0.25 0 -0.5
-0.1875 0.1875 -0.3125
-0.1875 0.1875 -0.25
-0.125 0.1875 -0.3125
-0.125 0.1875 -0.25
-0.1875 0.125 -0.3125
-0.1875 0.125 -0.25
-0.125 0.125 -0.3125
-0.1875 0.1875 -0.375
-0.125 0.1875 -0.375
-0.25 0.15625 -0.34375
-0.21875 0.15625 -0.34375
-0.25 0.1875 -0.34375
-0.21875 0.1875 -0.34375
-0.25 0.15625 -0.3125
-0.21875 0.15625 -0.3125
-0.21875 0.1875 -0.3125
-0.1875 0.15625 -0.34375
-0.1875 0.1875 -0.34375
-0.1875 0.15625 -0.3125
-0.25 0.125 -0.34375
-0.21875 0.125 -0.34375
-0.21875 0.125 -0.3125
-0.1875 0.125 -0.34375
-0.21875 0.15625 -0.375
-0.21875 0.1875 -0.375
-0.1875 0.15625 -0.375
-0.21875 0.125 -0.375
-0.1875 0.125 -0.375
-0.15625 0.15625 -0.34375
-0.15625 0.1875 -0.34375
-0.15625 0.15625 -0.3125
-0.15625 0.1875 -0.3125
-0.125 0.15625 -0.34375
-0.125 0.1875 -0.34375
-0.125 0.15625 -0.3125
-0.15625 0.125 -0.34375
-0.15625 0.125 -0.3125
-0.125 0.125 -0.34375
-0.15625 0.15625 -0.375
-0.15625 0.1875 -0.375
-0.125 0.15625 -0.375
-0.15625 0.125 -0.375
-0.125 0.125 -0.375
-0.0625 0.1875 -0.3125
-0.0625 0.1875 -0.25
0 0.1875 -0.3125
0 0.1875 -0.25
-0.0625 0.125 -0.3125
-0.0625 0.125 -0.25
0 0.125 -0.3125
-0.0625 0.1875 -0.375
0 0.1875 -0.375
-0.09375 0.15625 -0.34375
-0.09375 0.1875 -0.34375
-0.09375 0.15625 -0.3125
-0.09375 0.1875 -0.3125
-0.0625 0.15625 -0.34375
-0.0625 0.1875 -0.34375
-0.0625 0.15625 -0.3125
-0.09375 0.125 -0.34375
-0.09375 0.125 -0.3125
-0.0625 0.125 -0.34375
-0.09375 0.15625 -0.375
-0.09375 0.1875 -0.375
-0.0625 0.15625 -0.375
-0.09375 0.125 -0.375
-0.0625 0.125 -0.375
0 0.125 -0.375
-0.1875 0.0625 -0.3125
-0.1875 0.0625 -0.25
-0.125 0.0625 -0.3125
-0.125 0.0625 -0.25
-0.1875 0 -0.3125
-0.1875 0 -0.25
-0.125 0 -0.3125
-0.25 0.09375 -0.34375
-0.21875 0.09375 -0.34375
-0.25 0.09375 -0.3125
-0.21875 0.09375 -0.3125
-0.1875 0.09375 -0.34375
-0.1875 0.09375 -0.3125
-0.25 0.0625 -0.34375
-0.21875 0.0625 -0.34375
-0.21875 0.0625 -0.3125
-0.1875 0.0625 -0.34375
-0.21875 0.09375 -0.375
-0.1875 0.09375 -0.375
-0.21875 0.0625 -0.375
-0.1875 0.0625 -0.375
-0.15625 0.09375 -0.34375
-0.15625 0.09375 -0.3125
-0.125 0.09375 -0.34375
-0.125 0.09375 -0.3125
-0.15625 0.0625 -0.34375
-0.15625 0.0625 -0.3125
-0.125 0.0625 -0.34375
-0.15625 0.09375 -0.375
-0.125 0.09375 -0.375
-0.15625 0.0625 -0.375
-0.125 0.0625 -0.375
-0.25 0.03125 -0.34375
-0.21875 0.03125 -0.34375
-0.25 0.03125 -0.3125
-0.21875 0.03125 -0.3125
-0.1875 0.03125 -0.34375
-0.1875 0.03125 -0.3125
-0.25 0 -0.34375
-0.21875 0 -0.34375
-0.21875 0 -0.3125
-0.1875 0 -0.34375
-0.21875 0.03125 -0.375
-0.1875 0.03125 -0.375
-0.21875 0 -0.375
-0.1875 0 -0.375
-0.15625 0.03125 -0.34375
-0.15625 0.03125 -0.3125
-0.125 0.03125 -0.34375
[...]
POINT_DATA 54666
SCALARS U float
LOOKUP_TABLE default
1
1.00064
1
1.00059
1
1.0005
1
1.00047
1.00069
1.00066
1.00057
1.00056
1
1.00068
1
1.00052
1.00072
1.00059
1
1.00133
1
1.00108
1.00115
1.00102
1
1.00171
1.00131
1.0004
1.0004
1.00039
1.00039
1.00014
1.00016
1.00022
1.00022
1.0004
1.00039
1.00013
1.00021
1.00037
1.00042
1.00007
1.0001
1.00027
1.00004
1
1.00062
1
1.00048
1.00067
1.00056
1
1.00056
1
1.00046
1.00063
1.00054
1
1.00127
1.00111
1
1.00103
1.00096
1.0004
1.00039
1.00015
1.00022
1.0004
1.00039
1.00018
1.00023
1.00038
1.00009
1.0004
1.00014
1
1.00085
1
1.00081
1
1.0006
1.00054
1.0017
1.00156
1.00121
1
1.00095
1.00066
1.00212
1
1.00113
1
1.00108
1.00246
1.00219
1
1.00111
1.00359
1.00199
1.00182
1.00114
1.00105
1.00138
1.00131
1.00108
1.00254
1.00124
1.00154
1.00303
1.00254
1.00168
1.00165
1.0048
1.00183
1
1.00106
1
1.00076
1.00274
1.00152
1
1.00115
1.00086
1.00307
1
1.00074
1.00517
1
1.00056
1.00609
1.00337
1.00138
1.00173
1.00123
1.00381
1.00151
1.00183
1.00811
1.00151
1.01024
1.00112
1
1.00129
1
1.0013
1.00354
1.00287
1
1.00053
1.00545
1
1.00126
1
1.00141
1.00394
1.00321
1
0.999375
1.00061
1.00214
1.00127
1.00251
1.00091
1.0027
1.00242
1.00491
1.00374
1.0045
0.999951
1.00092
1.00299
1.00618
1.00032
1.00198
1.0026
1.00499
1.00002
1.00558
1.00458
1.00336
1.00198
1.00197
1.00376
1.00498
1.003
1.0034
1.00303
1.00347
1.00275
1.00491
1.00381
1.00392
1.00452
1.00691
1.00419
1.0068
1.00653
1.00406
1.00635
1.01042
1.01006
1.0034
1.00282
1.00284
1.00236
1.00164
1.00183
1.00176
1.00412
1.00332
1.00144
1.00403
1.00328
1.00151
1.00469
1.00104
1.00549
1.00378
1.00184
1.00211
1.00802
1.00439
1.00771
1.00504
1.01575
1.01432
1.00863
1.00472
1.00831
1.01848
1.01638
1.0044
1.00347
1.0016
1.00191
1.00487
1.00005
1.00448
1.00367
1.00139
1.00397
0.999353
1
0.996908
0.999821
1.00184
1.00082
1.00267
1.00092
1.00265
1.00235
1.00516
1.00438
0.998822
1.00107
1.00295
1.00599
0.998718
1.00045
1.00666
0.996967
1.00663
1
0.993701
0.997978
1.00027
1.00065
1.00314
1.00654
1.00563
0.997133
0.999902
1.00333
1.00665
0.995305
0.993646
1.00573
0.991613
1.00378
1
0.985904
0.995679
0.995272
1.00287
0.991406
0.982478
0.993792
0.998068
0.997862
1.00131
0.998709
1.00268
1.00356
1.00367
1.00477
1.00664
0.989722
0.993727
1.0018
1.00023
0.988875
0.989749
0.999071
0.994356
0.978847
0.976505
0.99264
0.992038
0.997063
0.999457
1.00047
1.00318
0.998098
1.00131
1.00355
1.00464
1.00588
1.00453
0.993655
0.993564
0.998485
0.996027
0.999083
1.0028
1.00386
0.992667
0.9955
0.973442
0.985808
0.981205
0.977396
0.97796
0.962439
0.940558
0.98274
0.978427
0.968802
0.956295
0.919188
1
0.972367
0.98722
0.970231
0.98583
0.989557
0.995306
1.00074
0.997429
1.00618
0.981938
0.986172
0.999688
0.995221
0.976355
0.968707
0.965295
0.961772
0.958418
0.983034
0.962249
0.979435
0.983028
0.992629
0.998693
0.991496
1.00476
0.976931
0.980257
0.997698
0.986637
0.96624
0.955292
0.947257
0.947813
0.928782
0.979136
0.954215
0.970092
0.94585
0.91061
0.962223
0.936271
0.898853
0.963829
0.937247
0.878707
0.927088
0.866779
0.944072
0.957692
0.927409
0.881964
0.95316
0.91621
0.855287
0.949143
0.91781
0.849202
0.906401
0.818611
1.01005
1.00542
1.0097
1.00645
1.01469
1.00664
1.01372
1.01868
1.01759
1.00611
1.01155
1.00591
1.01014
1.00557
1.00897
1.0076
1.01655
1.01436
1.01237
1.00631
1.01371
1.01034
1.02049
1.01486
1.01267
1.02412
1.01734
1.03196
1.01835
1.014
1.01204
1.00987
1.01556
1.01364
1.01171
1.02285
1.01421
1.01922
1.02833
1.01814
1.02197
1.03848
1.02868
1.00461
1.00406
1.00091
1.00167
1.00573
1.00481
0.999993
1.00495
0.998947
1.01038
1.00921
1.00844
1.00715
1.00473
1.00478
1.00517
1.01257
1.00973
1.00469
1.0124
1.01127
1.0043
1.01405
1.00365
0.995372
1.01906
1.0074
1.0182
1.00917
1.02144
1.00817
1.02037
1.00622
1.01566
1.00626
1.01157
1.02436
1.01687
1.00613
1.01684
1.0128
1.02781
1.02039
1.03846
1.02234
1.04362
1.02753
1.01642
1.02298
1.01596
1.03211
1.01863
1.02646
1.04698
1.03448
1.05254
1.0388
1.00568
1.0173
1.0066
1.01342
1.03063
1.02025
1.00522
1.01784
1.01404
1.03221
1.0221
1.04925
1.02172
1.05306
1.036
1.01977
1.02926
1.01928
1.03786
1.0209
1.03029
1.06215
1.04503
1.06999
1.04815
1.00613
1.00524
0.998978
1.00131
1.00611
1.00568
0.998427
1.01449
1.01095
1.00442
1.00593
1.01566
1.01217
1.00416
1.0163
1.00292
1.01814
1.00218
0.991921
1.01668
1.0127
1.00338
1.00612
1.01703
1.01324
1.0026
1.0185
1.00063
1.01748
0.999084
0.990374
1.00529
1.01144
1.00582
1.00945
1.00606
1.0103
1.00794
1.01782
1.01308
1.01455
1.01411
1.02467
1.01345
1.01097
1.02307
1.01507
1.03621
1.02031
1.01263
1.01419
1.01024
1.01667
1.01219
1.01382
1.02882
1.02328
1.02668
1.01503
1.02064
1.04445
1.03121
1.01578
1.03775
1.01803
1.05216
1.01238
1.06
0.996523
1.01068
1.03072
1.01408
1.03148
1.01691
1.03093
1.02677
1.05486
1.04887
1.04496
1.00728
1.03283
1.0351
1.06488
1.00445
1.0321
1.03619
1.07672
1.02689
1.08416
1.04712
1.03332
1.0365
1.0427
1.03094
1.03433
1.02804
1.03072
1.02623
1.04365
1.03772
1.03341
1.04206
1.05023
1.03522
1.05185
1.05655
1.04243
1.05888
1.06881
1.0724
1.03889
1.03269
1.02937
1.02515
1.03185
1.02765
1.02533
1.04586
1.03358
1.03605
1.05149
1.04022
1.03837
1.06146
1.04342
1.03966
1.04425
1.03044
1.03354
1.03121
1.03459
1.02674
1.05061
1.03664
1.03797
1.05891
1.06459
1.0481
1.05824
1.04033
1.06325
1.07952
1.08205
1.04831
1.07738
1.08111
1.10101
1.10854
1.11327
1.11506
1.07015
1.08994
1.06579
1.08056
1.05987
1.07453
1.06612
1.10821
1.09533
1.0892
1.07452
1.09817
1.08295
1.12516
1.08044
1.11253
1.09499
1.13588
1.12424
1.16977
1.11612
1.09671
1.09201
1.07925
1.11358
1.09809
1.09483
1.13897
1.10477
1.13542
1.14127
1.11416
1.13368
1.18279
1.16696
1.06923
1.0527
1.04739
1.04082
1.08553
1.05227
1.0938
1.06518
1.05678
1.10442
1.0898
1.0861
1.07517
1.0902
1.08151
1.07738
1.12507
1.09703
1.10212
1.12271
1.10443
1.10548
1.14937
1.116
1.07292
1.0668
1.0636
1.05831
1.05464
1.05209
1.04983
1.07677
1.0689
1.05477
1.08368
1.07529
1.05998
1.08355
1.05733
1.01437
1.0115
1.02763
1.01711
1.01406
1.04969
1.01398
1.01203
1.02898
1.01083
1.05325
1.03279
1.01623
1.02412
1.01535
1.06378
1.03879
1.03512
1.01743
1.02535
1.07475
1.04088
0.990579
1.00802
1.0303
1.01456
1.02876
1.01372
1.03091
1.02564
1.0561
1.04295
1.00148
1.03182
1.07828
1.00232
1.03115
1.03187
1.06875
1.02369
1.10722
0.972204
0.974803
0.985876
0.993677
0.985431
0.99494
1.00337
0.989566
0.958532
0.954428
0.986514
0.959797
0.958977
0.952947
0.983988
0.951807
0.919743
0.883969
1.02666
1.11393
0.999156
1.0212
1.05842
1.02938
1.06235
1.0295
1.05497
1.05441
1.10251
1.09532
1.01303
1.05291
1.05553
1.10655
1.01291
1.06255
1.0703
1.12817
1.04948
1.13919
0.980585
1.01569
1.06005
1.02776
1.06025
1.02924
1.06267
1.05505
1.10896
1.09275
1.09611
1.00362
1.06287
1.13983
1.00214
1.06221
1.06546
1.14045
1.03802
1.18773
0.946285
0.960814
0.970687
0.987155
0.974682
0.993796
1.00811
0.989264
0.921883
0.932524
0.979477
0.955023
0.917888
0.914369
0.966196
0.927532
0.870952
0.866846
1.04862
1.17312
1.01504
1.18207
0.976485
1.0315
1.09585
1.05045
1.10711
1.05575
1.10611
1.10135
1.19053
1.16378
1.15648
1.01255
1.09325
1.11087
1.22033
1.00725
1.08366
1.11287
1.21786
1.07294
1.24044
0.934666
0.96482
0.958398
0.985475
0.972144
1.00199
1.01894
1.00312
1.03183
0.910934
0.942634
0.985032
0.980466
0.897189
0.91811
0.952009
0.95136
0.88756
0.920941
1.08467
1.10471
1.23524
1.17759
1.07008
1.09855
1.24633
1.06144
1.24781
1.04361
1.25711
0.985046
0.989034
0.996992
1.00472
0.98794
0.995129
1.00627
1.00294
1.01244
0.973099
0.968424
0.97584
0.982151
0.987493
1.00316
1.00079
0.965249
0.97091
1.0306
1.03196
1.07821
1.05147
1.01269
1.02453
1.05729
1.03088
1.05218
1.02742
1.0577
1.04995
1.09348
1.07348
1.08799
1.01819
1.06191
1.12236
1.02164
1.0578
1.0544
1.0971
1.05714
1.12488
1.02851
1.03204
1.07521
1.0016
1.01835
1.05395
1.02955
1.05313
1.09408
1.07671
1.00715
1.04791
1.11428
1.01506
1.05116
1.05186
1.09094
1.04438
1.10806
0.951486
0.933854
0.909481
0.929873
0.886985
0.81172
0.943995
0.928632
0.897807
0.87879
0.907065
0.87859
0.931243
0.917444
0.91042
0.88551
0.921668
0.849445
0.903644
0.860601
0.882887
0.841472
0.849353
0.793384
0.903711
0.877717
0.91322
0.845662
0.83957
0.786758
0.956927
0.965878
0.98321
1.0007
0.971193
0.986666
1.00714
0.993823
0.930644
0.921684
0.933874
0.942661
0.953097
0.994264
0.976235
0.900397
0.895635
1.05081
1.17443
0.976569
1.0319
1.10403
1.05651
1.10698
1.05012
1.1071
1.10133
1.1913
1.15744
1.16409
1.00729
1.08026
1.21324
1.01369
1.09491
1.11262
1.2131
1.04269
1.24181
1.03017
1.05001
1.09427
1.05953
1.09157
1.05636
1.10238
1.09214
1.14487
1.12362
1.14839
1.04049
1.09419
1.17858
1.04365
1.08937
1.09101
1.14244
1.08815
1.17897
0.922461
0.995001
1.08141
1.22503
0.949515
1.01962
1.253
0.976314
1.07593
1.23274
1.01392
1.26832
0.889244
0.864432
0.824568
0.847845
0.80054
0.736704
0.826431
0.75633
0.750511
0.810479
0.768691
0.845431
0.81794
0.832486
0.806561
0.8445
0.741308
0.790449
0.780636
0.775526
0.733846
0.768622
0.692167
0.788471
0.745226
0.79138
0.70198
0.699071
0.64763
0.737237
0.932077
1.01141
1.14704
0.856861
0.938056
1.06386
0.856903
0.86248
0.999208
1.08381
1.06147
1.1445
1.04583
1.11298
1.14675
1.20182
1.22752
1.18014
0.936944
0.936587
1.07922
1.04669
0.952584
1.0462
1.14225
1.19315
0.794607
0.925847
0.621421
0.858341
0.791422
0.974732
1.04009
0.921258
1.10545
0.779738
0.735854
1.00096
0.888447
0.741951
0.555974
0.609498
0.469258
0.554246
0.838913
0.839689
0.87605
0.866456
0.836872
0.801775
0.799817
0.796616
0.731566
0.780903
0.682495
0.682228
0.627752
0.902529
1.03773
0.872873
1.03165
0.546848
0.752213
0.698273
0.920293
0.985544
0.862731
1.0508
0.724689
0.678554
0.97013
0.85291
0.584134
0.41782
0.513035
0.394486
0.499837
0.506805
0.707264
0.664924
0.887701
0.961195
0.84753
1.03469
0.689839
0.655182
0.95226
0.845872
0.526826
0.380005
0.493198
0.369823
0.490455
0.852602
0.832942
0.914755
0.932135
0.879221
0.868062
0.955222
0.798901
0.730213
0.669977
0.825982
0.808813
0.909048
0.769937
0.679523
0.602717
0.780373
0.926291
1.01593
1.03116
1.13928
1.19
1.2474
0.821427
0.725659
0.865287
0.899997
1.00918
1.13631
1.19825
0.700208
0.856411
0.454427
0.679675
0.45088
0.32514
0.537924
0.340354
0.233205
0.6174
0.409401
0.287174
0.290538
0.189502
0.757679
0.892898
1.00661
1.01677
1.13872
1.1978
1.26066
0.769026
0.691148
0.850314
0.885799
1.00066
1.14112
1.20452
0.686371
0.766526
0.416483
0.60224
0.394345
0.275854
0.435455
0.270869
0.173941
0.587081
0.391249
0.273256
0.265839
0.175074
0.438105
0.601453
0.354066
0.49419
0.279479
0.17326
0.450457
0.25214
0.153399
0.404246
0.224182
0.125207
0.1944
0.103533
0.532929
0.30679
0.428627
0.236113
0.143496
0.406798
0.224988
0.1383
0.330428
0.177216
0.092964
0.165406
0.0875043
0.520411
0.305634
0.382652
0.201118
0.10659
0.32985
0.169146
0.0830657
0.361058
0.193558
0.104823
0.159845
0.0794148
0.252815
0.304826
0.150708
0.0715802
0.279802
0.138144
0.0656823
0.279224
0.140012
0.0664472
0.126426
0.059576
0.93851
0.944745
0.973375
0.99026
0.963214
0.886162
0.879664
0.934359
0.9414
0.986257
0.957683
0.880018
0.913081
0.914991
0.943072
0.951761
0.915454
0.918446
0.95398
0.918236
0.960449
0.921439
0.88309
0.879556
0.882913
0.876023
0.910709
0.913922
0.949541
0.915032
0.8762
0.872382
1.01484
1.03751
1.08089
1.05252
1.08605
1.13548
1.11958
1.0225
1.07946
1.17656
1.03137
1.08391
1.08109
1.13644
1.08672
1.15861
0.928687
0.9521
0.969724
0.996114
0.935935
0.956124
1.0032
0.985803
0.887649
0.893666
0.918456
0.942728
0.989027
0.964016
0.896429
0.913194
1.07351
1.24159
1.0167
1.27104
1.05216
1.20075
1.00027
1.19605
1.00782
1.11931
0.894319
0.957542
1.02289
1.01133
1.07514
1.1308
1.13896
0.903756
0.960849
1.09433
0.951068
1.01361
1.06356
1.10613
0.943693
1.0522
0.807263
0.737355
0.725967
0.615849
0.798929
0.731099
0.712531
0.602746
0.817246
0.796819
0.760602
0.746843
0.678725
0.610608
0.80851
0.793042
0.77386
0.677927
0.618498
0.756694
0.886249
0.994789
1.01531
1.1425
1.21275
1.26968
0.757187
0.684919
0.455665
0.886698
0.908255
1.14387
0.929812
0.672641
0.588587
0.43341
0.591066
0.39765
0.272738
0.424946
0.273112
0.186535
0.595052
0.39975
0.234961
0.288135
0.151227
0.790276
0.694648
0.518138
0.624629
0.431473
0.773485
0.707551
0.223197
0.641618
0.475774
0.31451
0.112272
0.654207
0.558094
0.742462
0.461981
0.373726
0.229315
0.430767
0.522522
0.310998
0.366631
0.198365
0.113435
0.308316
0.16165
0.0842366
0.372204
0.218461
0.117359
0.17673
0.0953565
0.434436
0.248465
0.279478
0.139209
0.0680195
0.25064
0.123782
0.0589488
0.279732
0.148887
0.0729632
0.129118
0.0590365
0.524633
0.365244
0.406948
0.241985
0.0982142
0.338121
0.193842
0.0736265
0.441691
0.308683
0.175676
0.24364
0.122037
0.277529
0.300559
0.161123
0.0543109
0.262997
0.137168
0.0412065
0.321386
0.208747
0.0961072
0.173853
0.0701769
0.805125
0.789393
0.889889
0.780087
0.734227
0.69137
0.642444
0.80174
0.787298
0.88335
0.77686
0.691487
0.641134
0.789344
0.85061
0.565483
0.50844
0.791024
0.868926
0.598477
0.610753
0.671762
0.604711
0.676602
0.600617
0.530894
0.609298
0.53279
0.523308
0.443475
0.666923
0.604841
0.528309
0.531602
0.440114
0.412197
0.329661
0.313634
0.216529
0.451747
0.42984
0.348493
0.306314
1.07435
1.04853
1.07662
1.05411
1.1098
1.10777
1.09415
1.05673
1.09404
1.15475
1.14033
1.06582
1.04456
1.05151
1.03783
1.04486
1.035
1.03976
1.09033
1.05601
1.07897
1.05128
1.04856
1.1195
1.0613
1.08223
1.1017
1.06914
1.0819
1.06836
1.08238
1.06976
1.11747
1.09466
1.0964
1.12171
1.14028
1.12195
1.09404
1.13854
1.15236
1.16728
1.14948
1.14631
1.17226
1.17552
1.23064
1.19228
1.21148
1.24584
1.28713
1.16729
1.13627
1.15146
1.13227
1.22293
1.18356
1.19158
1.15838
1.16632
1.22538
1.21673
1.19187
1.18565
1.20145
1.19828
1.16978
1.19887
1.17944
1.19511
1.25888
1.2563
1.22679
1.23541
1.24931
1.2317
1.20153
1.2093
1.27376
1.24366
1.18135
1.16916
1.18131
1.15937
1.17017
1.15889
1.16751
1.20934
1.20324
1.18145
1.18837
1.17895
1.17283
1.20974
1.17934
1.14812
1.11251
1.16201
1.13227
1.20499
1.2132
1.19811
1.13099
1.20377
1.2806
1.20796
1.21181
1.17311
1.178
1.17656
1.18208
1.15507
1.21095
1.18289
1.18761
1.2428
1.25866
1.2091
1.239
1.23935
1.24572
1.20094
1.23429
1.27952
1.2648
1.15715
1.12816
1.13358
1.10878
1.14634
1.12405
1.12862
1.18938
1.16534
1.18325
1.14754
1.1654
1.20539
1.1598
1.28849
1.20953
1.21448
1.17867
1.18446
1.17232
1.18085
1.15982
1.22391
1.19024
1.18938
1.24039
1.24085
1.20188
1.25758
1.24674
1.2578
1.25844
1.30512
1.30368
1.15564
1.20904
1.15065
1.19552
1.13368
1.17637
1.16023
1.25194
1.21906
1.16063
1.23081
1.19251
1.29033
1.26745
1.23081
1.32751
1.29559
1.37703
1.27498
1.23418
1.27788
1.32403
1.26648
1.33004
1.35713
1.35927
1.42066
1.4285
1.27326
1.20329
1.20161
1.17241
1.31472
1.32835
1.37947
1.29426
1.23416
1.29248
1.30794
1.27305
1.32972
1.32278
1.40145
1.39867
1.28101
1.27138
1.25062
1.24685
1.36353
1.42391
1.39826
1.4677
1.31171
1.25612
1.328
1.25046
1.45394
1.45909
1.50212
1.51375
1.22576
1.22433
1.20634
1.20737
1.24986
1.181
1.26157
1.23915
1.23333
1.22072
1.30868
1.26771
1.33357
1.27677
1.28768
1.39922
1.33997
1.20437
1.19719
1.17892
1.17366
1.22055
1.17818
1.23611
1.21543
1.18972
1.26619
1.19635
1.29581
1.2182
1.23903
1.20129
1.25743
1.19739
1.21962
1.36763
1.3157
1.24858
1.2351
1.21343
1.23062
1.19972
1.21725
1.17998
1.19639
1.17736
1.18433
1.16257
1.17317
1.25393
1.19517
1.18039
1.1826
1.1495
1.15406
1.11708
1.42845
1.36744
1.48646
1.41954
1.20985
1.18102
1.19428
1.16426
1.28974
1.21191
1.32613
1.22797
1.1357
1.09771
1.12929
1.08938
1.1279
1.06962
1.14215
1.12156
1.12646
1.11085
1.15891
1.14735
1.14257
1.1375
1.15032
1.14318
1.1282
1.14487
1.13243
1.13604
1.17526
1.16669
1.15816
1.15731
1.1606
1.14681
1.1537
1.1744
1.16524
1.14375
1.15777
1.13869
1.15134
1.16136
1.17418
1.10063
1.08702
1.06862
1.0632
1.10443
1.06682
1.12352
1.09876
1.08349
1.15059
1.09562
1.14057
1.11448
1.11887
1.09905
1.12651
1.10491
1.10911
1.16113
1.15825
1.15869
1.12991
1.15217
1.15922
1.16519
1.15587
1.15275
1.15584
1.15334
1.14345
1.16283
1.14963
1.15085
1.16326
1.16324
1.17604
1.1626
1.1674
1.16204
1.17482
1.16113
1.19095
1.22736
1.10116
1.08178
1.08596
1.07317
1.06681
1.05865
1.06281
1.12408
1.07549
1.11488
1.0904
1.06706
1.16177
1.07534
1.17957
1.20598
1.16146
1.17117
1.1662
1.16205
1.16404
1.16867
1.15956
1.1517
1.17035
1.15409
1.16254
1.18028
1.17433
1.1507
1.14979
1.17617
1.17366
1.16116
1.15455
1.18327
1.17866
1.16276
1.17382
1.16777
1.18789
1.20404
1.19277
1.20379
1.17947
1.20159
1.16791
1.17176
1.18158
1.17035
1.15789
1.17704
1.1697
1.23736
1.05707
0.923756
1.20824
1.18442
1.17623
1.15969
1.20838
1.1928
1.18211
1.24978
1.2374
1.2986
1.20916
1.27519
1.03192
0.968828
1.15714
1.16774
1.15512
1.14523
1.02748
0.936155
1.09018
1.1541
1.24393
1.23729
1.1872
1.22156
1.05117
1.16837
1.0504
1.09563
1.17239
1.20962
1.21341
1.21499
1.14085
1.24686
1.05195
1.10129
1.20584
1.15063
0.929955
1.0082
0.97784
0.89763
0.996746
1.05734
1.16378
1.12198
1.2421
1.24359
1.10169
1.10311
1.23735
1.12545
1.24061
1.10026
0.665369
1.00038
0.966031
1.01029
0.963234
1.26114
1.28859
1.16322
1.1014
1.20308
1.13865
1.1842
1.16787
1.16288
1.14117
1.15255
1.14293
1.14365
1.1932
1.1846
1.16538
1.23275
1.19457
1.19338
1.08787
1.11439
1.116
1.10917
1.11605
1.09979
1.07892
1.07542
1.08845
1.13161
1.13231
1.09353
1.14019
1.11856
1.08948
1.09731
1.06815
1.20501
1.19347
1.1872
1.18315
1.23523
1.20234
1.23837
1.10184
1.14337
1.29409
1.30837
1.16083
1.15159
1.12294
1.12002
1.21922
1.17086
1.17055
1.13684
1.10376
1.29389
1.23629
1.11267
1.06037
1.11175
1.06926
1.12169
1.08844
1.10622
1.08145
1.13508
1.10341
1.12445
1.16839
1.18188
1.12875
1.09544
1.14603
1.17737
1.19896
1.13664
1.10315
1.12081
1.09409
1.13189
1.10289
1.11718
1.17439
1.15786
1.15032
1.11221
1.14598
1.20153
1.18632
1.11594
1.064
1.11811
1.12919
1.09551
1.15111
1.1143
1.17861
1.20769
1.12763
1.09558
1.1517
1.17157
1.19876
1.1582
1.11462
1.15482
1.11493
1.22011
1.21269
1.15962
1.11702
1.15622
1.21532
1.21736
1.0916
1.05455
1.05401
1.03984
1.12356
1.09409
1.10821
1.0865
1.10847
1.08529
1.09923
1.14942
1.13661
1.1361
1.10168
1.11869
1.17011
1.15494
1.08454
1.06829
1.07708
1.06377
1.05653
1.05129
1.05493
1.10575
1.06391
1.09156
1.07281
1.05933
1.11718
1.06732
1.09197
1.05781
1.05013
1.1433
1.10336
1.12293
1.09179
1.19305
1.16354
1.14266
1.10504
1.11919
1.18527
1.1769
1.15552
1.14925
1.18375
1.17596
1.14906
1.16888
1.14298
1.16817
1.21502
1.20836
1.20287
1.19678
1.18679
1.17696
1.14944
1.1681
1.20937
1.19676
1.15898
1.13202
1.1557
1.13311
1.14458
1.12106
1.14323
1.18133
1.17829
1.16239
1.15723
1.13092
1.14235
1.17967
1.16006
1.09203
1.07193
1.0555
1.05207
1.11293
1.05627
1.08803
1.07105
1.05151
1.12382
1.10555
1.12286
1.10748
1.09981
1.09003
1.10248
1.13695
1.13823
1.10789
1.12205
1.10361
1.09872
1.13589
1.10749
1.07478
1.07177
1.07919
1.07377
1.053
1.05351
1.05589
1.07853
1.0846
1.0525
1.07442
1.06977
1.05012
1.07808
1.04873
1.26378
1.27341
1.2641
1.19419
1.20172
1.16928
1.28763
1.23094
1.29142
1.27479
1.30177
1.2191
1.31004
1.23128
1.11664
1.28307
1.23477
1.26871
1.23859
1.2489
1.2311
1.2887
1.2686
1.2718
1.05464
1.02573
1.19094
1.14825
1.18224
1.14537
1.22761
1.17288
1.21608
1.25084
1.28233
1.19194
1.15112
1.23913
1.25984
1.30089
1.32916
1.32564
1.31749
1.20547
1.04455
1.34746
1.3442
1.22344
1.03936
1.27951
1.29181
1.26172
1.30129
0.971607
0.935744
1.30838
1.31503
1.29549
0.96112
0.928205
1.24339
1.20662
1.24542
1.22596
1.2143
1.19351
1.21891
1.21332
1.19432
1.21019
1.184
1.2524
1.2584
1.23235
1.01732
1.02698
1.19705
1.19967
1.17846
1.17432
1.18328
1.18601
1.1631
1.15338
1.2163
1.22501
1.20516
1.04886
1.08532
1.24585
1.23258
1.19042
1.18919
1.22765
1.21827
1.17813
1.22138
1.18796
1.20889
1.29048
1.27369
1.26406
1.24815
1.20025
1.24112
1.32411
1.31125
1.20574
1.18002
1.19557
1.16613
1.18984
1.17209
1.18224
1.25453
1.23447
1.22891
1.19392
1.21342
1.29436
1.27358
1.24758
1.23533
0.919213
0.926463
1.28604
1.27688
0.914321
0.923672
1.22846
1.22475
0.958075
1.0139
1.27127
1.26652
0.95989
1.01958
0.986728
0.893132
0.745472
0.644937
1.20818
1.24444
1.15961
1.25233
1.05633
1.26135
1.13908
0.981732
1.06688
0.731621
1.21829
1.23654
1.02449
1.0521
0.776641
0.949267
1.22853
1.11152
1.2831
0.91072
1.19571
1.08396
0.660623
0.93993
0.638812
0.901881
1.17396
0.879086
0.69654
0.690323
0.818925