# vtk DataFile Version 2.0
Gerris simulation version 1.3.2 (131206-155120)
ASCII
DATASET UNSTRUCTURED_GRID

POINTS 48714 float
-0.5 0.4375 0.4375
-0.4375 0.4375 0.4375
-0.5 0.5 0.4375
-0.4375 0.5 0.4375
-0.5 0.4375 0.5
-0.4375 0.4375 0.5
-0.5 0.5 0.5
-0.4375 0.5 0.5
-0.375 0.4375 0.4375
-0.375 0.5 0.4375
-0.375 0.4375 0.5
-0.375 0.5 0.5
-0.5 0.375 0.4375
-0.4375 0.375 0.4375
-0.5 0.375 0.5
-0.4375 0.375 0.5
-0.375 0.375 0.4375
-0.375 0.375 0.5
-0.5 0.4375 0.375
-0.4375 0.4375 0.375
-0.5 0.5 0.375
-0.4375 0.5 0.375
-0.375 0.4375 0.375
-0.375 0.5 0.375
-0.5 0.375 0.375
-0.4375 0.375 0.375
-0.375 0.375 0.375
-0.3125 0.4375 0.4375
-0.3125 0.5 0.4375
-0.3125 0.4375 0.5
-0.3125 0.5 0.5
-0.25 0.4375 0.4375
-0.25 0.5 0.4375
-0.25 0.4375 0.5
-0.25 0.5 0.5
-0.3125 0.375 0.4375
-0.3125 0.375 0.5
-0.25 0.375 0.4375
-0.25 0.375 0.5
-0.3125 0.4375 0.375
-0.3125 0.5 0.375
-0.25 0.4375 0.375
-0.25 0.5 0.375
-0.3125 0.375 0.375
-0.25 0.375 0.375
-0.5 0.3125 0.4375
-0.4375 0.3125 0.4375
-0.5 0.3125 0.5
-0.4375 0.3125 0.5
-0.375 0.3125 0.4375
-0.375 0.3125 0.5
-0.5 0.25 0.4375
-0.4375 0.25 0.4375
-0.5 0.25 0.5
-0.4375 0.25 0.5
-0.375 0.25 0.4375
-0.375 0.25 0.5
-0.5 0.3125 0.375
-0.4375 0.3125 0.375
-0.375 0.3125 0.375
-0.5 0.25 0.375
-0.4375 0.25 0.375
-0.375 0.25 0.375
-0.3125 0.3125 0.4375
-0.3125 0.3125 0.5
-0.25 0.3125 0.4375
-0.25 0.3125 0.5
-0.3125 0.25 0.4375
-0.3125 0.25 0.5
-0.25 0.25 0.4375
-0.25 0.25 0.5
-0.3125 0.3125 0.375
-0.25 0.3125 0.375
-0.3125 0.25 0.375
-0.25 0.25 0.375
-0.5 0.4375 0.3125
-0.4375 0.4375 0.3125
-0.5 0.5 0.3125
-0.4375 0.5 0.3125
-0.375 0.4375 0.3125
-0.375 0.5 0.3125
-0.5 0.375 0.3125
-0.4375 0.375 0.3125
-0.375 0.375 0.3125
-0.5 0.4375 0.25
-0.4375 0.4375 0.25
-0.5 0.5 0.25
-0.4375 0.5 0.25
-0.375 0.4375 0.25
-0.375 0.5 0.25
-0.5 0.375 0.25
-0.4375 0.375 0.25
-0.375 0.375 0.25
-0.3125 0.4375 0.3125
-0.3125 0.5 0.3125
-0.25 0.4375 0.3125
-0.25 0.5 0.3125
-0.3125 0.375 0.3125
-0.25 0.375 0.3125
-0.3125 0.4375 0.25
-0.3125 0.5 0.25
-0.25 0.4375 0.25
-0.25 0.5 0.25
-0.3125 0.375 0.25
-0.25 0.375 0.25
-0.5 0.3125 0.3125
-0.4375 0.3125 0.3125
-0.375 0.3125 0.3125
-0.5 0.25 0.3125
-0.4375 0.25 0.3125
-0.375 0.25 0.3125
-0.5 0.3125 0.25
-0.4375 0.3125 0.25
-0.375 0.3125 0.25
-0.5 0.25 0.25
-0.4375 0.25 0.25
-0.375 0.25 0.25
-0.3125 0.3125 0.3125
-0.25 0.3125 0.3125
-0.3125 0.25 0.3125
-0.25 0.25 0.3125
-0.3125 0.3125 0.25
-0.25 0.3125 0.25
-0.3125 0.25 0.25
-0.25 0.25 0.25
-0.1875 0.4375 0.4375
-0.1875 0.5 0.4375
-0.1875 0.4375 0.5
-0.1875 0.5 0.5
-0.125 0.4375 0.4375
-0.125 0.5 0.4375
-0.125 0.4375 0.5
-0.125 0.5 0.5
-0.1875 0.375 0.4375
-0.1875 0.375 0.5
-0.125 0.375 0.4375
-0.125 0.375 0.5
-0.1875 0.4375 0.375
-0.1875 0.5 0.375
-0.125 0.4375 0.375
-0.125 0.5 0.375
-0.1875 0.375 0.375
-0.125 0.375 0.375
-0.0625 0.4375 0.4375
-0.0625 0.5 0.4375
-0.0625 0.4375 0.5
-0.0625 0.5 0.5
0 0.4375 0.4375
0 0.5 0.4375
0 0.4375 0.5
0 0.5 0.5
-0.0625 0.375 0.4375
-0.0625 0.375 0.5
0 0.375 0.4375
0 0.375 0.5
-0.0625 0.4375 0.375
-0.0625 0.5 0.375
0 0.4375 0.375
0 0.5 0.375
-0.0625 0.375 0.375
0 0.375 0.375
-0.1875 0.3125 0.4375
-0.1875 0.3125 0.5
-0.125 0.3125 0.4375
-0.125 0.3125 0.5
-0.1875 0.25 0.4375
-0.1875 0.25 0.5
-0.125 0.25 0.4375
-0.125 0.25 0.5
-0.1875 0.3125 0.375
-0.125 0.3125 0.375
-0.1875 0.25 0.375
-0.125 0.25 0.375
-0.0625 0.3125 0.4375
-0.0625 0.3125 0.5
0 0.3125 0.4375
0 0.3125 0.5
-0.0625 0.25 0.4375
-0.0625 0.25 0.5
0 0.25 0.4375
0 0.25 0.5
-0.0625 0.3125 0.375
0 0.3125 0.375
-0.0625 0.25 0.375
0 0.25 0.375
-0.1875 0.4375 0.3125
-0.1875 0.5 0.3125
-0.125 0.4375 0.3125
-0.125 0.5 0.3125
-0.1875 0.375 0.3125
-0.125 0.375 0.3125
-0.1875 0.4375 0.25
-0.1875 0.5 0.25
-0.125 0.4375 0.25
-0.125 0.5 0.25
-0.1875 0.375 0.25
-0.125 0.375 0.25
-0.0625 0.4375 0.3125
-0.0625 0.5 0.3125
0 0.4375 0.3125
0 0.5 0.3125
-0.0625 0.375 0.3125
0 0.375 0.3125
-0.0625 0.4375 0.25
-0.0625 0.5 0.25
0 0.4375 0.25
0 0.5 0.25
-0.0625 0.375 0.25
0 0.375 0.25
-0.1875 0.3125 0.3125
-0.125 0.3125 0.3125
-0.1875 0.25 0.3125
-0.125 0.25 0.3125
-0.1875 0.3125 0.25
-0.125 0.3125 0.25
-0.1875 0.25 0.25
-0.125 0.25 0.25
-0.0625 0.3125 0.3125
0 0.3125 0.3125
-0.0625 0.25 0.3125
0 0.25 0.3125
-0.0625 0.3125 0.25
0 0.3125 0.25
-0.0625 0.25 0.25
0 0.25 0.25
-0.5 0.1875 0.4375
-0.4375 0.1875 0.4375
-0.5 0.1875 0.5
-0.4375 0.1875 0.5
-0.375 0.1875 0.4375
-0.375 0.1875 0.5
-0.5 0.125 0.4375
-0.4375 0.125 0.4375
-0.5 0.125 0.5
-0.4375 0.125 0.5
-0.375 0.125 0.4375
-0.375 0.125 0.5
-0.5 0.1875 0.375
-0.4375 0.1875 0.375
-0.375 0.1875 0.375
-0.5 0.125 0.375
-0.4375 0.125 0.375
-0.375 0.125 0.375
-0.3125 0.1875 0.4375
-0.3125 0.1875 0.5
-0.25 0.1875 0.4375
-0.25 0.1875 0.5
-0.3125 0.125 0.4375
-0.3125 0.125 0.5
-0.25 0.125 0.4375
-0.25 0.125 0.5
-0.3125 0.1875 0.375
-0.25 0.1875 0.375
-0.3125 0.125 0.375
-0.25 0.125 0.375
-0.5 0.0625 0.4375
-0.4375 0.0625 0.4375
-0.5 0.0625 0.5
-0.4375 0.0625 0.5
-0.375 0.0625 0.4375
-0.375 0.0625 0.5
-0.5 0 0.4375
-0.4375 0 0.4375
-0.5 0 0.5
-0.4375 0 0.5
-0.375 0 0.4375
-0.375 0 0.5
-0.5 0.0625 0.375
-0.4375 0.0625 0.375
-0.375 0.0625 0.375
-0.5 0 0.375
-0.4375 0 0.375
-0.375 0 0.375
-0.3125 0.0625 0.4375
-0.3125 0.0625 0.5
-0.25 0.0625 0.4375
-0.25 0.0625 0.5
-0.3125 0 0.4375
-0.3125 0 0.5
-0.25 0 0.4375
-0.25 0 0.5
-0.3125 0.0625 0.375
-0.25 0.0625 0.375
-0.3125 0 0.375
-0.25 0 0.375
-0.5 0.1875 0.3125
-0.4375 0.1875 0.3125
-0.375 0.1875 0.3125
-0.5 0.125 0.3125
-0.4375 0.125 0.3125
-0.375 0.125 0.3125
-0.5 0.1875 0.25
-0.4375 0.1875 0.25
-0.375 0.1875 0.25
-0.5 0.125 0.25
-0.4375 0.125 0.25
-0.375 0.125 0.25
-0.3125 0.1875 0.3125
-0.25 0.1875 0.3125
-0.3125 0.125 0.3125
-0.25 0.125 0.3125
-0.3125 0.1875 0.25
-0.25 0.1875 0.25
-0.3125 0.125 0.25
-0.25 0.125 0.25
-0.5 0.0625 0.3125
-0.4375 0.0625 0.3125
-0.375 0.0625 0.3125
-0.5 0 0.3125
-0.4375 0 0.3125
-0.375 0 0.3125
-0.5 0.0625 0.25
-0.4375 0.0625 0.25
-0.375 0.0625 0.25
-0.5 0 0.25
-0.4375 0 0.25
-0.375 0 0.25
-0.3125 0.0625 0.3125
-0.25 0.0625 0.3125
-0.3125 0 0.3125
-0.25 0 0.3125
-0.3125 0.0625 0.25
-0.25 0.0625 0.25
-0.3125 0 0.25
-0.25 0 0.25
-0.1875 0.1875 0.4375
-0.1875 0.1875 0.5
-0.125 0.1875 0.4375
-0.125 0.1875 0.5
-0.1875 0.125 0.4375
-0.1875 0.125 0.5
-0.125 0.125 0.4375
-0.125 0.125 0.5
-0.1875 0.1875 0.375
-0.125 0.1875 0.375
-0.1875 0.125 0.375
-0.125 0.125 0.375
-0.0625 0.1875 0.4375
-0.0625 0.1875 0.5
0 0.1875 0.4375
0 0.1875 0.5
-0.0625 0.125 0.4375
-0.0625 0.125 0.5
0 0.125 0.4375
0 0.125 0.5
-0.0625 0.1875 0.375
0 0.1875 0.375
-0.0625 0.125 0.375
0 0.125 0.375
-0.1875 0.0625 0.4375
-0.1875 0.0625 0.5
-0.125 0.0625 0.4375
-0.125 0.0625 0.5
-0.1875 0 0.4375
-0.1875 0 0.5
-0.125 0 0.4375
-0.125 0 0.5
-0.1875 0.0625 0.375
-0.125 0.0625 0.375
-0.1875 0 0.375
-0.125 0 0.375
-0.0625 0.0625 0.4375
-0.0625 0.0625 0.5
0 0.0625 0.4375
0 0.0625 0.5
-0.0625 0 0.4375
-0.0625 0 0.5
0 0 0.4375
0 0 0.5
-0.0625 0.0625 0.375
0 0.0625 0.375
-0.0625 0 0.375
0 0 0.375
-0.1875 0.1875 0.3125
-0.125 0.1875 0.3125
-0.1875 0.125 0.3125
-0.125 0.125 0.3125
-0.1875 0.1875 0.25
-0.125 0.1875 0.25
-0.1875 0.125 0.25
-0.125 0.125 0.25
-0.0625 0.1875 0.3125
0 0.1875 0.3125
-0.0625 0.125 0.3125
0 0.125 0.3125
-0.0625 0.1875 0.25
0 0.1875 0.25
-0.0625 0.125 0.25
0 0.125 0.25
-0.1875 0.0625 0.3125
-0.125 0.0625 0.3125
-0.1875 0 0.3125
-0.125 0 0.3125
-0.1875 0.0625 0.25
-0.125 0.0625 0.25
-0.1875 0 0.25
-0.125 0 0.25
-0.0625 0.0625 0.3125
0 0.0625 0.3125
-0.0625 0 0.3125
0 0 0.3125
-0.0625 0.0625 0.25
0 0.0625 0.25
-0.0625 0 0.25
0 0 0.25
-0.5 0.4375 0.1875
-0.4375 0.4375 0.1875
-0.5 0.5 0.1875
-0.4375 0.5 0.1875
-0.375 0.4375 0.1875
-0.375 0.5 0.1875
-0.5 0.375 0.1875
-0.4375 0.375 0.1875
-0.375 0.375 0.1875
-0.5 0.4375 0.125
-0.4375 0.4375 0.125
-0.5 0.5 0.125
-0.4375 0.5 0.125
-0.375 0.4375 0.125
-0.375 0.5 0.125
-0.5 0.375 0.125
-0.4375 0.375 0.125
-0.375 0.375 0.125
-0.3125 0.4375 0.1875
-0.3125 0.5 0.1875
-0.25 0.4375 0.1875
-0.25 0.5 0.1875
-0.3125 0.375 0.1875
-0.25 0.375 0.1875
-0.3125 0.4375 0.125
-0.3125 0.5 0.125
-0.25 0.4375 0.125
-0.25 0.5 0.125
-0.3125 0.375 0.125
-0.25 0.375 0.125
-0.5 0.3125 0.1875
-0.4375 0.3125 0.1875
-0.375 0.3125 0.1875
-0.5 0.25 0.1875
-0.4375 0.25 0.1875
-0.375 0.25 0.1875
-0.5 0.3125 0.125
-0.4375 0.3125 0.125
-0.375 0.3125 0.125
-0.5 0.25 0.125
-0.4375 0.25 0.125
-0.375 0.25 0.125
-0.3125 0.3125 0.1875
-0.25 0.3125 0.1875
-0.3125 0.25 0.1875
-0.25 0.25 0.1875
-0.3125 0.3125 0.125
-0.25 0.3125 0.125
-0.3125 0.25 0.125
-0.25 0.25 0.125
-0.5 0.4375 0.0625
-0.4375 0.4375 0.0625
-0.5 0.5 0.0625
-0.4375 0.5 0.0625
-0.375 0.4375 0.0625
-0.375 0.5 0.0625
-0.5 0.375 0.0625
-0.4375 0.375 0.0625
-0.375 0.375 0.0625
-0.5 0.4375 0
-0.4375 0.4375 0
-0.5 0.5 0
-0.4375 0.5 0
-0.375 0.4375 0
-0.375 0.5 0
-0.5 0.375 0
-0.4375 0.375 0
-0.375 0.375 0
-0.3125 0.4375 0.0625
-0.3125 0.5 0.0625
-0.25 0.4375 0.0625
-0.25 0.5 0.0625
-0.3125 0.375 0.0625
-0.25 0.375 0.0625
-0.3125 0.4375 0
-0.3125 0.5 0
-0.25 0.4375 0
-0.25 0.5 0
-0.3125 0.375 0
-0.25 0.375 0
-0.5 0.3125 0.0625
-0.4375 0.3125 0.0625
-0.375 0.3125 0.0625
-0.5 0.25 0.0625
-0.4375 0.25 0.0625
-0.375 0.25 0.0625
-0.5 0.3125 0
-0.4375 0.3125 0
-0.375 0.3125 0
-0.5 0.25 0
-0.4375 0.25 0
-0.375 0.25 0
-0.3125 0.3125 0.0625
-0.25 0.3125 0.0625
-0.3125 0.25 0.0625
-0.25 0.25 0.0625
-0.3125 0.3125 0
-0.25 0.3125 0
-0.3125 0.25 0
-0.25 0.25 0
-0.1875 0.4375 0.1875
-0.1875 0.5 0.1875
-0.125 0.4375 0.1875
-0.125 0.5 0.1875
-0.1875 0.375 0.1875
-0.125 0.375 0.1875
-0.1875 0.4375 0.125
-0.1875 0.5 0.125
-0.125 0.4375 0.125
-0.125 0.5 0.125
-0.1875 0.375 0.125
-0.125 0.375 0.125
-0.0625 0.4375 0.1875
-0.0625 0.5 0.1875
0 0.4375 0.1875
0 0.5 0.1875
-0.0625 0.375 0.1875
0 0.375 0.1875
-0.0625 0.4375 0.125
-0.0625 0.5 0.125
0 0.4375 0.125
0 0.5 0.125
-0.0625 0.375 0.125
0 0.375 0.125
-0.1875 0.3125 0.1875
-0.125 0.3125 0.1875
-0.1875 0.25 0.1875
-0.125 0.25 0.1875
-0.1875 0.3125 0.125
-0.125 0.3125 0.125
-0.1875 0.25 0.125
-0.125 0.25 0.125
-0.0625 0.3125 0.1875
0 0.3125 0.1875
-0.0625 0.25 0.1875
0 0.25 0.1875
-0.0625 0.3125 0.125
0 0.3125 0.125
-0.0625 0.25 0.125
0 0.25 0.125
-0.1875 0.4375 0.0625
[...]
POINT_DATA 48714
SCALARS U float
LOOKUP_TABLE default
1
1.00008
1
1.00008
1
1.00008
1
1.00008
1.00015
1.00015
1.00015
1.00015
1
1.00008
1
1.00008
1.00016
1.00015
1
1.00008
1
1.00008
1.00017
1.00017
1
1.00009
1.00017
1.00022
1.00022
1.00022
1.00022
1.00028
1.00028
1.00027
1.00027
1.00022
1.00022
1.00028
1.00028
1.00024
1.00024
1.0003
1.0003
1.00024
1.0003
1
1.00008
1
1.00008
1.00016
1.00015
1
1.00008
1
1.00008
1.00016
1.00015
1
1.00009
1.00017
1
1.00009
1.00017
1.00023
1.00022
1.00028
1.00028
1.00023
1.00022
1.00029
1.00028
1.00024
1.0003
1.00025
1.00031
1
1.00009
1
1.00009
1.00018
1.00018
1
1.0001
1.00019
1
1.00011
1
1.00011
1.00021
1.00021
1
1.00011
1.00022
1.00026
1.00026
1.00033
1.00033
1.00027
1.00033
1.0003
1.0003
1.00038
1.00038
1.00031
1.00038
1
1.0001
1.00019
1
1.0001
1.00019
1
1.00011
1.00022
1
1.00012
1.00023
1.00027
1.00034
1.00028
1.00034
1.00031
1.00039
1.00032
1.0004
1.00032
1.00032
1.00032
1.00032
1.00035
1.00035
1.00035
1.00035
1.00033
1.00032
1.00036
1.00035
1.00034
1.00034
1.00037
1.00037
1.00035
1.00038
1.00037
1.00037
1.00036
1.00036
1.00037
1.00037
1.00037
1.00037
1.00037
1.00036
1.00037
1.00037
1.00039
1.00039
1.00039
1.00039
1.00039
1.00039
1.00033
1.00032
1.00036
1.00035
1.00033
1.00032
1.00036
1.00035
1.00035
1.00038
1.00035
1.00038
1.00037
1.00037
1.00037
1.00037
1.00038
1.00037
1.00038
1.00037
1.00039
1.00039
1.0004
1.00039
1.00038
1.00038
1.00041
1.00041
1.00038
1.00041
1.00043
1.00043
1.00046
1.00046
1.00044
1.00047
1.00042
1.00042
1.00042
1.00042
1.00042
1.00042
1.00047
1.00047
1.00046
1.00046
1.00047
1.00046
1.00039
1.00042
1.00039
1.00042
1.00044
1.00047
1.00045
1.00048
1.00043
1.00042
1.00043
1.00043
1.00048
1.00047
1.00049
1.00047
1
1.00008
1
1.00008
1.00016
1.00016
1
1.00008
1
1.00008
1.00016
1.00016
1
1.00009
1.00017
1
1.00009
1.00018
1.00023
1.00023
1.00029
1.00028
1.00023
1.00023
1.00029
1.00028
1.00025
1.00031
1.00025
1.00031
1
1.00008
1
1.00008
1.00016
1.00016
1
1.00008
1
1.00008
1.00016
1.00016
1
1.00009
1.00018
1
1.00009
1.00018
1.00023
1.00023
1.00029
1.00029
1.00023
1.00023
1.00029
1.00029
1.00025
1.00032
1.00025
1.00032
1
1.0001
1.0002
1
1.0001
1.0002
1
1.00012
1.00023
1
1.00012
1.00024
1.00028
1.00035
1.00029
1.00036
1.00033
1.00041
1.00034
1.00042
1
1.0001
1.0002
1
1.0001
1.0002
1
1.00012
1.00024
1
1.00012
1.00024
1.00029
1.00036
1.00029
1.00036
1.00034
1.00042
1.00034
1.00042
1.00033
1.00033
1.00036
1.00036
1.00034
1.00033
1.00037
1.00036
1.00036
1.00039
1.00036
1.00039
1.00038
1.00037
1.00038
1.00037
1.00038
1.00037
1.00038
1.00037
1.0004
1.0004
1.0004
1.0004
1.00034
1.00033
1.00037
1.00036
1.00034
1.00033
1.00037
1.00036
1.00036
1.00039
1.00036
1.00039
1.00038
1.00037
1.00038
1.00037
1.00038
1.00037
1.00038
1.00037
1.0004
1.0004
1.0004
1.0004
1.0004
1.00043
1.00041
1.00043
1.00046
1.00049
1.00047
1.0005
1.00044
1.00043
1.00044
1.00043
1.0005
1.00048
1.0005
1.00048
1.00041
1.00044
1.00041
1.00044
1.00048
1.00051
1.00048
1.00051
1.00045
1.00043
1.00045
1.00043
1.00051
1.00048
1.00051
1.00049
1
1.00013
1
1.00013
1.00025
1.00025
1
1.00013
1.00025
1
1.00015
1
1.00015
1.0003
1.0003
1
1.00016
1.00031
1.00036
1.00035
1.00044
1.00044
1.00036
1.00045
1.00043
1.00042
1.00053
1.00052
1.00044
1.00054
1
1.00013
1.00026
1
1.00014
1.00027
1
1.00016
1.00032
1
1.00017
1.00033
1.00037
1.00046
1.00039
1.00048
1.00046
1.00056
1.00048
1.00059
1
1.00019
1
1.00019
1.00036
1.00036
1
1.00019
1.00038
1
1.00023
1
1.00022
1.00044
1.00044
1
1.00024
1.00046
1.00052
1.00051
1.00064
1.00063
1.00054
1.00066
1.00063
1.00062
1.00078
1.00076
1.00066
1.00081
1
1.0002
1.00039
1
1.00021
1.00042
1
1.00025
1.00049
1
1.00026
1.00052
1.00056
1.00069
1.0006
1.00074
1.0007
1.00087
1.00076
1.00094
1.0005
1.0005
1.00053
1.00053
1.00051
1.00054
1.00059
1.00059
1.00062
1.00062
1.00061
1.00064
1.00053
1.00053
1.00051
1.00051
1.00054
1.00052
1.00062
1.00061
1.00058
1.00058
1.00063
1.00059
1.00052
1.00055
1.00054
1.00057
1.00063
1.00066
1.00066
1.00068
1.00055
1.00052
1.00056
1.00053
1.00065
1.0006
1.00067
1.00061
1.00071
1.0007
1.00074
1.00073
1.00074
1.00076
1.00086
1.00085
1.00089
1.00087
1.00091
1.00093
1.00072
1.00071
1.00066
1.00066
1.00074
1.00068
1.00085
1.00084
1.00077
1.00076
1.00088
1.00078
1.00078
1.0008
1.00082
1.00084
1.00097
1.00099
1.00105
1.00106
1.00077
1.0007
1.0008
1.00072
1.00093
1.00081
1.00098
1.00085
1
1.00014
1.00028
1
1.00015
1.00029
1
1.00018
1.00035
1
1.00018
1.00036
1.0004
1.00049
1.00041
1.00051
1.0005
1.00061
1.00051
1.00064
1
1.00015
1.00029
1
1.00015
1.00029
1
1.00019
1.00037
1
1.00019
1.00037
1.00042
1.00052
1.00042
1.00052
1.00053
1.00065
1.00053
1.00065
1
1.00022
1.00044
1
1.00023
1.00046
1
1.00028
1.00055
1
1.00029
1.00058
1.00063
1.00078
1.00066
1.00082
1.00081
1.00102
1.00086
1.00108
1
1.00024
1.00047
1
1.00024
1.00047
1
1.0003
1.0006
1
1.0003
1.0006
1.00068
1.00084
1.00068
1.00085
1.00089
1.00112
1.00089
1.00114
1.00056
1.00058
1.00057
1.0006
1.00069
1.00071
1.00071
1.00073
1.00058
1.00054
1.00059
1.00055
1.00069
1.00063
1.00071
1.00064
1.00058
1.00061
1.00058
1.00061
1.00073
1.00075
1.00073
1.00075
1.00059
1.00055
1.0006
1.00056
1.00072
1.00065
1.00072
1.00065
1.00087
1.00089
1.00091
1.00093
1.00114
1.00114
1.00121
1.00121
1.00084
1.00074
1.00087
1.00076
1.00104
1.00088
1.0011
1.00091
1.00094
1.00096
1.00095
1.00096
1.00126
1.00126
1.00128
1.00127
1.00089
1.00077
1.00089
1.00077
1.00113
1.00092
1.00114
1.00093
1.00036
1.00036
1.00036
1.00036
1.00034
1.00034
1.00034
1.00034
1.00036
1.00036
1.00034
1.00034
1.00038
1.00037
1.00035
1.00035
1.00038
1.00035
1.00032
1.00032
1.00031
1.00031
1.00028
1.00028
1.00028
1.00028
1.00032
1.00031
1.00028
1.00028
1.00032
1.00032
1.00029
1.00029
1.00032
1.00029
1.00036
1.00036
1.00034
1.00034
1.00036
1.00036
1.00034
1.00034
1.00038
1.00035
1.00038
1.00035
1.00032
1.00031
1.00028
1.00028
1.00032
1.00031
1.00028
1.00028
1.00032
1.00029
1.00032
1.00029
1.0004
1.0004
1.00037
1.00037
1.0004
1.00037
1.00043
1.00043
1.00039
1.00039
1.00043
1.00039
1.00033
1.00033
1.00029
1.00029
1.00033
1.00029
1.00035
1.00035
1.0003
1.0003
1.00035
1.0003
1.0004
1.00037
1.0004
1.00037
1.00044
1.00039
1.00044
1.0004
1.00033
1.00029
1.00033
1.00029
1.00035
1.0003
1.00035
1.0003
1.00025
1.00025
1.00025
1.00025
1.00022
1.00022
1.00022
1.00022
1.00025
1.00025
1.00022
1.00022
1.00025
1.00025
1.00022
1.00022
1.00025
1.00022
1.00019
1.00019
1.00019
1.00019
1.00015
1.00016
1.00016
1.00016
1.00019
1.00019
1.00015
1.00016
1.00018
1.00018
1.00015
1.00015
1.00018
1.00015
1.00025
1.00025
1.00022
1.00022
1.00025
1.00025
1.00022
1.00022
1.00025
1.00022
1.00025
1.00022
1.00018
1.00019
1.00015
1.00015
1.00018
1.00018
1.00015
1.00015
1.00018
1.00015
1.00018
1.00015
1.00025
1.00025
1.00022
1.00022
1.00025
1.00021
1.00026
1.00026
1.00021
1.00021
1.00025
1.00021
1.00018
1.00018
1.00015
1.00015
1.00018
1.00015
1.00017
1.00017
1.00014
1.00014
1.00017
1.00014
1.00025
1.00021
1.00025
1.00021
1.00025
1.00021
1.00025
1.00021
1.00018
1.00014
1.00018
1.00014
1.00017
1.00013
1.00017
1.00013
1.00037
1.00036
1.00034
1.00034
1.00037
1.00036
1.00035
1.00034
1.00038
1.00036
1.00038
1.00036
1.00032
1.00031
1.00028
1.00028
1.00032
1.00031
1.00028
1.00028
1.00032
1.00029
1.00032
1.00029
1.00037
1.00036
1.00035
1.00034
1.00037
1.00036
1.00035
1.00034
1.00038
1.00036
1.00038
1.00036
1.00032
1.00031
1.00028
1.00028
1.00032
1.00031
1.00028
1.00028
1.00032
1.00029
1.00032
1.00029
1.00041
1.00037
1.00041
1.00037
1.00044
1.0004
1.00044
1.0004
1.00033
1.00029
1.00033
1.00029
1.00035
1.0003
1.00035
1.00029
1.00041
1.00037
1.00041
1.00037
1.00045
1.0004
1.00045
1.0004
1.00033
1.00029
1.00033
1.00029
1.00035
1.00029
1.00034
1.00029
1.00025
1.00025
1.00022
1.00022
1.00025
1.00025
1.00022
1.00022
1.00025
1.00021
1.00025
1.00021
1.00018
1.00018
1.00015
1.00015
1.00018
1.00018
1.00015
1.00015
1.00018
1.00015
1.00018
1.00015
1.00025
1.00025
1.00021
1.00022
1.00025
1.00025
1.00021
1.00022
1.00025
1.00021
1.00025
1.00021
1.00018
1.00018
1.00015
1.00015
1.00018
1.00018
1.00015
1.00015
1.00018
1.00015
1.00018
1.00015
1.00025
1.00021
1.00025
1.00021
1.00025
1.0002
1.00025
1.0002
1.00017
1.00014
1.00017
1.00014
1.00016
1.00013
1.00016
1.00013
1.00025
1.00021
1.00025
1.00021
1.00024
1.0002
1.00024
1.0002
1.00017
1.00014
1.00017
1.00014
1.00016
1.00013
1.00016
1.00013
1.00047
1.00047
1.00042
1.00042
1.00048
1.00042
1.00052
1.00052
1.00046
1.00046
1.00053
1.00046
1.00037
1.00037
1.00031
1.00031
1.00036
1.00031
1.00038
1.00038
1.00031
1.00032
1.00038
1.00031
1.00048
1.00042
1.00048
1.00042
1.00053
1.00046
1.00054
1.00046
1.00036
1.0003
1.00036
1.0003
1.00038
1.00031
1.00038
1.0003
1.00058
1.00058
1.00049
1.00049
1.00059
1.00049
1.00065
1.00065
1.00053
1.00053
1.00066
1.00053
1.0004
1.0004
1.00032
1.00032
1.0004
1.00031
1.00042
1.00042
1.00031
1.00031
1.00041
1.0003
1.0006
1.00049
1.00061
1.00049
1.00067
1.00052
1.00068
1.00052
1.00039
1.0003
1.00038
1.00029
1.00039
1.00028
1.00038
1.00026
1.00025
1.00026
1.00021
1.00021
1.00025
1.0002
1.00025
1.00025
1.0002
1.0002
1.00025
1.00019
1.00016
1.00016
1.00013
1.00013
1.00016
1.00012
1.00015
1.00015
1.00011
1.00011
1.00014
1.00011
1.00025
1.0002
1.00024
1.0002
1.00024
1.00019
1.00023
1.00018
1.00016
1.00012
1.00015
1.00012
1.00014
1.0001
1.00013
1.0001
1.00024
1.00024
1.00018
1.00018
1.00023
1.00017
1.00022
1.00023
1.00015
1.00016
1.00021
1.00014
1.00013
1.00013
1.00009
1.00009
1.00012
1.00008
1.0001
1.0001
1.00006
1.00006
1.00009
1.00005
1.00022
1.00016
1.00021
1.00015
1.0002
1.00013
1.00017
1.00011
1.00011
1.00008
1.0001
1.00007
1.00008
1.00004
1.00006
1.00003
1.00049
1.00043
1.00049
1.00043
1.00055
1.00046
1.00055
1.00046
1.00036
1.0003
1.00036
1.00029
1.00037
1.00029
1.00037
1.00029
1.0005
1.00043
1.0005
1.00043
1.00056
1.00046
1.00056
1.00046
1.00036
1.00029
1.00036
1.00029
1.00036
1.00028
1.00036
1.00028
1.00062
1.00049
1.00062
1.00049
1.00069
1.00051
1.00069
1.0005
1.00037
1.00028
1.00036
1.00027
1.00036
1.00024
1.00034
1.00022
1.00062
1.00048
1.00062
1.00048
1.0007
1.00049
1.00069
1.00049
1.00036
1.00026
1.00036
1.00025
1.00033
1.0002
1.00032
1.0002
1.00024
1.00019
1.00024
1.00019
1.00023
1.00017
1.00022
1.00016
1.00015
1.00011
1.00015
1.00011
1.00013
1.00009
1.00012
1.00009
1.00023
1.00018
1.00023
1.00018
1.00021
1.00016
1.00021
1.00016
1.00014
1.00011
1.00014
1.00011
1.00012
1.00008
1.00012
1.00008
1.0002
1.00014
1.00019
1.00013
1.00015
1.00009
1.00013
1.00007
1.00009
1.00006
1.00008
1.00005
1.00005
1.00002
1.00003
1.00001
1.00018
1.00012
1.00018
1.00012
1.00012
1.00006
1.00012
1.00006
1.00008
1.00005
1.00008
1.00005
1.00003
1
1.00002
0.999999
1
1.00008
1
1.00008
1.00016
1.00016
1
1.00008
1
1.00008
1.00016
1.00016
1
1.00009
1.00018
1
1.00009
1.00017
1.00023
1.00023
1.00029
1.00028
1.00023
1.00022
1.00029
1.00028
1.00025
1.00032
1.00025
1.00031
1
1.00008
1
1.00008
1.00016
1.00015
1
1.00008
1
1.00008
1.00016
1.00015
1
1.00009
1.00017
1
1.00009
1.00017
1.00023
1.00022
1.00029
1.00028
1.00023
1.00022
1.00028
1.00028
1.00025
1.00031
1.00024
1.0003
1
1.0001
1.0002
1
1.0001
1.0002
1
1.00012
1.00024
1
1.00012
1.00023
1.00029
1.00036
1.00028
1.00035
1.00034
1.00042
1.00033
1.00041
1
1.0001
1.00019
1
1.0001
1.00019
1
1.00012
1.00023
1
1.00011
1.00022
1.00028
1.00034
1.00027
1.00034
1.00032
1.0004
1.00031
1.00039
1.00034
1.00033
1.00037
1.00036
1.00033
1.00033
1.00036
1.00036
1.00036
1.00039
1.00036
1.00039
1.00038
1.00037
1.00038
1.00037
1.00038
1.00037
1.00038
1.00037
1.0004
1.0004
1.0004
1.0004
1.00033
1.00032
1.00036
1.00035
1.00033
1.00032
1.00036
1.00035
1.00035
1.00038
1.00035
1.00038
1.00037
1.00037
1.00037
1.00037
1.00037
1.00036
1.00037
1.00037
1.0004
1.00039
1.00039
1.00039
1.00041
1.00044
1.0004
1.00043
1.00047
1.0005
1.00047
1.0005
1.00044
1.00043
1.00044
1.00043
1.0005
1.00048
1.0005
1.00048
1.00039
1.00042
1.00039
1.00042
1.00046
1.00049
1.00044
1.00047
1.00043
1.00042
1.00043
1.00042
1.00049
1.00047
1.00048
1.00046
1
1.00008
1
1.00008
1.00015
1.00015
1
1.00008
1
1.00008
1.00015
1.00015
1
1.00008
1.00017
1
1.00008
1.00016
1.00022
1.00022
1.00028
1.00027
1.00022
1.00022
1.00028
1.00027
1.00024
1.0003
1.00023
1.00029
1
1.00008
1
1.00008
1.00015
1.00015
1
1.00008
1
1.00008
1.00015
1.00015
1
1.00008
1.00016
1
1.00008
1.00016
1.00022
1.00021
1.00027
1.00027
1.00022
1.00021
1.00027
1.00027
1.00023
1.00029
1.00023
1.00029
1
1.00009
1.00019
1
1.00009
1.00018
1
1.00011
1.00021
1
1.00011
1.00021
1.00027
1.00033
1.00026
1.00033
1.00031
1.00038
1.0003
1.00037
1
1.00009
1.00018
1
1.00009
1.00018
1
1.00011
1.00021
1
1.0001
1.0002
1.00026
1.00032
1.00026
1.00032
1.00029
1.00037
1.00029
1.00036
1.00032
1.00032
1.00035
1.00035
1.00032
1.00031
1.00035
1.00034
1.00034
1.00037
1.00034
1.00037
1.00037
1.00036
1.00037
1.00036
1.00036
1.00036
1.00037
1.00036
1.00039
1.00039
1.00038
1.00038
1.00032
1.00031
1.00035
1.00034
1.00032
1.00031
1.00035
1.00034
1.00034
1.00037
1.00034
1.00037
1.00036
1.00036
1.00037
1.00036
1.00036
1.00036
1.00036
1.00036
1.00038
1.00038
1.00038
1.00038
1.00038
1.00041
1.00037
1.0004
1.00043
1.00046
1.00042
1.00045
1.00042
1.00041
1.00041
1.00041
1.00047
1.00046
1.00046
1.00045
1.00037
1.0004
1.00037
1.0004
1.00042
1.00045
1.00042
1.00045
1.00041
1.00041
1.00041
1.00041
1.00046
1.00045
1.00045
1.00044
1
1.00015
1.00029
1
1.00015
1.00028
1
1.00019
1.00036
1
1.00018
1.00035
1.00041
1.00051
1.0004
1.0005
1.00052
1.00064
1.00051
1.00063
1
1.00014
1.00027
1
1.00014
1.00026
1
1.00017
1.00034
1
1.00017
1.00032
1.00039
1.00048
1.00038
1.00047
1.00049
1.0006
1.00046
1.00057
1
1.00023
1.00046
1
1.00023
1.00045
1
1.00029
1.00059
1
1.00029
1.00057
1.00067
1.00084
1.00065
1.0008
1.00088
1.00111
1.00084
1.00106
1
1.00022
1.00043
1
1.00021
1.0004
1
1.00027
1.00054
1
1.00026
1.0005
1.00061
1.00076
1.00058
1.00071
1.00079
1.00098
1.00073
1.0009
1.00058
1.0006
1.00056
1.00059
1.00072
1.00074
1.0007
1.00072
1.00059
1.00055
1.00058
1.00054
1.00071
1.00064
1.0007
1.00063
1.00055
1.00057
1.00053
1.00055
1.00067
1.0007
1.00064
1.00067
1.00057
1.00053
1.00055
1.00052
1.00067
1.00062
1.00065
1.0006
1.00093
1.00095
1.0009
1.00091
1.00125
1.00125
1.00118
1.00119
1.00088
1.00076
1.00086
1.00075
1.00112
1.00092
1.00108
1.00089
1.00085
1.00087
1.00079
1.00082
1.0011
1.00111
1.00101
1.00102
1.00082
1.00072
1.00078
1.0007
1.00102
1.00086
1.00095
1.00082
1
1.00013
1.00025
1
1.00013
1.00025
1
1.00016
1.00031
1
1.00015
1.0003
1.00036
1.00045
1.00035
1.00043
1.00044
1.00054
1.00042
1.00052
1
1.00012
1.00024
1
1.00012
1.00024
1
1.00015
1.00029
1
1.00015
1.00028
1.00034
1.00043
1.00034
1.00042
1.00041
1.00051
1.00041
1.0005
1
1.00019
1.00038
1
1.00019
1.00036
1
1.00024
1.00047
1
1.00023
1.00044
1.00054
1.00067
1.00051
1.00063
1.00067
1.00083
1.00063
1.00077
1
1.00018
1.00035
1
1.00018
1.00034
1
1.00022
1.00042
1
1.00021
1.00041
1.00049
1.00061
1.00049
1.0006
1.0006
1.00074
1.00059
1.00072
1.00051
1.00054
1.00049
1.00052
1.00061
1.00064
1.00058
1.00061
1.00054
1.00051
1.00052
1.0005
1.00063
1.00058
1.00061
1.00057
1.00048
1.00051
1.00048
1.00051
1.00057
1.0006
1.00056
1.00059
1.00052
1.0005
1.00051
1.0005
1.00059
1.00056
1.00059
1.00056
1.00075
1.00077
1.00071
1.00073
1.00093
1.00094
1.00086
1.00088
1.00074
1.00067
1.00071
1.00065
1.00089
1.00078
1.00084
1.00075
1.00068
1.00071
1.00067
1.0007
1.00082
1.00084
1.00081
1.00083
1.00069
1.00064
1.00068
1.00064
1.00081
1.00074
1.0008
1.00073
1.00037
1.00036
1.00034
1.00034
1.00037
1.00036
1.00034
1.00034
1.00038
1.00036
1.00038
1.00035
1.00032
1.00031
1.00028
1.00028
1.00032
1.00031
1.00028
1.00028
1.00032
1.00029
1.00032
1.00029
1.00036
1.00036
1.00034
1.00034
1.00036
1.00036
1.00034
1.00034
1.00038
1.00035
1.00037
1.00035
1.00031
1.00031
1.00028
1.00028
1.00031
1.00031
1.00028
1.00028
1.00032
1.00029
1.00032
1.00029
1.00041
1.00037
1.00041
1.00037
1.00044
1.0004
1.00044
1.00039
1.00033
1.00029
1.00033
1.00029
1.00034
1.00029
1.00034
1.00029
1.0004
1.00037
1.0004
1.00037
1.00044
1.00039
1.00043
1.00039
1.00033
1.00029
1.00033
1.00029
1.00034
1.00029
1.00034
1.0003
1.00025
1.00025
1.00021
1.00022
1.00025
1.00025
1.00022
1.00022
1.00025
1.00021
1.00025
1.00021
1.00018
1.00018
1.00015
1.00015
1.00018
1.00018
1.00015
1.00015
1.00018
1.00015
1.00018
1.00015
1.00025
1.00025
1.00022
1.00022
1.00025
1.00025
1.00022
1.00022
1.00025
1.00021
1.00025
1.00021
1.00018
1.00018
1.00015
1.00015
1.00018
1.00018
1.00015
1.00015
1.00018
1.00015
1.00018
1.00015
1.00025
1.00021
1.00025
1.00021
1.00024
1.0002
1.00025
1.0002
1.00017
1.00014
1.00017
1.00014
1.00016
1.00013
1.00016
1.00013
1.00025
1.00021
1.00025
1.00021
1.00025
1.0002
1.00025
1.00021
1.00017
1.00014
1.00018
1.00014
1.00016
1.00013
1.00017
1.00013
1.00036
1.00035
1.00034
1.00034
1.00036
1.00035
1.00034
1.00033
1.00037
1.00035
1.00037
1.00035
1.00031
1.00031
1.00028
1.00028
1.00031
1.00031
1.00028
1.00028
1.00032
1.00029
1.00032
1.00029
1.00036
1.00035
1.00034
1.00033
1.00036
1.00035
1.00034
1.00033
1.00037
1.00035
1.00037
1.00035
1.00031
1.00031
1.00028
1.00028
1.00031
1.00031
1.00028
1.00028
1.00032
1.00029
1.00032
1.00029
1.0004
1.00037
1.00039
1.00036
1.00043
1.00039
1.00042
1.00039
1.00033
1.00029
1.00033
1.00029
1.00034
1.0003
1.00034
1.0003
1.00039
1.00036
1.00039
1.00036
1.00042
1.00039
1.00042
1.00039
1.00033
1.00029
1.00033
1.00029
1.00034
1.0003
1.00034
1.0003
1.00025
1.00025
1.00022
1.00022
1.00025
1.00025
1.00022
1.00022
1.00025
1.00022
1.00025
1.00022
1.00018
1.00019
1.00015
1.00016
1.00019
1.00019
1.00016
1.00016
1.00018
1.00015
1.00018
1.00015
1.00025
1.00025
1.00022
1.00022
1.00025
1.00025
1.00022
1.00022
1.00025
1.00022
1.00025
1.00022
1.00019
1.00019
1.00016
1.00016
1.00019
1.00019
1.00016
1.00016
1.00018
1.00015
1.00018
1.00015
1.00025
1.00021
1.00025
1.00021
1.00025
1.00021
1.00025
1.00021
1.00018
1.00015
1.00018
1.00015
1.00017
1.00014
1.00017
1.00014
1.00025
1.00022
1.00025
1.00022
1.00025
1.00021
1.00026
1.00021
1.00018
1.00015
1.00018
1.00015
1.00017
1.00014
1.00017
1.00014
1.00049
1.00043
1.00049
1.00042
1.00055
1.00046
1.00055
1.00045
1.00036
1.00029
1.00036
1.00029
1.00036
1.00028
1.00037
1.00029
1.00048
1.00042
1.00048
1.00042
1.00054
1.00045
1.00053
1.00045
1.00036
1.0003
1.00036
1.0003
1.00037
1.00029
1.00037
1.0003
1.00062
1.00048
1.00061
1.00048
1.00069
1.00049
1.00068
1.00049
1.00036
1.00026
1.00036
1.00027
1.00033
1.00021
1.00034
1.00022
1.00061
1.00048
1.00059
1.00048
1.00068
1.0005
1.00066
1.00051
1.00037
1.00028
1.00038
1.00029
1.00036
1.00024
1.00038
1.00027
1.00023
1.00019
1.00024
1.00019
1.00022
1.00016
1.00022
1.00017
1.00014
1.00011
1.00015
1.00011
1.00012
1.00008
1.00012
1.00009
1.00024
1.00019
1.00024
1.0002
1.00023
1.00017
1.00023
1.00018
1.00015
1.00012
1.00015
1.00012
1.00013
1.00009
1.00014
1.0001
1.00018
1.00012
1.00019
1.00013
1.00012
1.00006
1.00014
1.00008
1.00008
1.00005
1.00009
1.00005
1.00003
1
1.00004
1.00001
1.0002
1.00014
1.00021
1.00015
1.00016
1.0001
1.00018
1.00012
1.0001
1.00006
1.00011
1.00007
1.00005
1.00002
1.00007
1.00004
1.00047
1.00042
1.00046
1.00041
1.00052
1.00045
1.00051
1.00045
1.00036
1.0003
1.00036
1.0003
1.00038
1.0003
1.00038
1.00031
1.00046
1.00041
1.00046
1.00041
1.00051
1.00045
1.00051
1.00045
1.00036
1.00031
1.00036
1.00031
1.00038
1.00031
1.00038
1.00031
1.00058
1.00048
1.00057
1.00048
1.00065
1.00052
1.00064
1.00052
1.00039
1.0003
1.00039
1.00031
1.00039
1.00029
1.0004
1.0003
1.00057
1.00048
1.00057
1.00048
1.00063
1.00052
1.00063
1.00052
1.0004
1.00032
1.0004
1.00032
1.00041
1.00031
1.00041
1.00032
1.00025
1.0002
1.00025
1.0002
1.00024
1.00019
1.00025
1.00019
1.00016
1.00012
1.00016
1.00013
1.00014
1.00011
1.00015
1.00011
1.00025
1.00021
1.00026
1.00021
1.00025
1.0002
1.00025
1.0002
1.00016
1.00013
1.00017
1.00013
1.00015
1.00011
1.00015
1.00011
1.00023
1.00017
1.00024
1.00018
1.0002
1.00014
1.00022
1.00015
1.00012
1.00008
1.00013
1.00009
1.00009
1.00005
1.0001
1.00006
1.00024
1.00018
1.00025
1.00019
1.00023
1.00016
1.00023
1.00017
1.00013
1.00009
1.00014
1.0001
1.00011
1.00007
1.00011
1.00007
1
1.00028
1
1.00027
1.00054
1.00053
1
1.00029
1.00057
1
1.00033
1
1.00032
1.00065
1.00064
1
1.00034
1.00068
1.00077
1.00076
1.00095
1.00093
1.00081
1.00101
1.00094
1.00091
1.00116
1.00113
1.001
1.00125
1
1.00031
1.0006
1
1.00032
1.00065
1
1.00037