# vtk DataFile Version 2.0
Gerris simulation version 1.3.2 (131206-155120)
ASCII
DATASET UNSTRUCTURED_GRID

POINTS 47028 float
-0.5 0.25 0.25
-0.25 0.25 0.25
-0.5 0.5 0.25
-0.25 0.5 0.25
-0.5 0.25 0.5
-0.25 0.25 0.5
-0.5 0.5 0.5
-0.25 0.5 0.5
0 0.25 0.25
0 0.5 0.25
0 0.25 0.5
0 0.5 0.5
-0.5 0 0.25
-0.25 0 0.25
-0.5 0 0.5
-0.25 0 0.5
0 0 0.25
0 0 0.5
-0.5 0.25 0
-0.25 0.25 0
-0.5 0.5 0
-0.25 0.5 0
0 0.25 0
0 0.5 0
-0.5 0 0
-0.25 0 0
0 0 0
0.25 0.25 0.25
0.25 0.5 0.25
0.25 0.25 0.5
0.25 0.5 0.5
0.5 0.25 0.25
0.5 0.5 0.25
0.5 0.25 0.5
0.5 0.5 0.5
0.25 0 0.25
0.25 0 0.5
0.5 0 0.25
0.5 0 0.5
0.25 0.25 0
0.25 0.5 0
0.5 0.25 0
0.5 0.5 0
0.25 0 0
0.5 0 0
-0.5 -0.25 0.25
-0.25 -0.25 0.25
-0.5 -0.25 0.5
-0.25 -0.25 0.5
0 -0.25 0.25
0 -0.25 0.5
-0.5 -0.5 0.25
-0.25 -0.5 0.25
-0.5 -0.5 0.5
-0.25 -0.5 0.5
0 -0.5 0.25
0 -0.5 0.5
-0.5 -0.25 0
-0.25 -0.25 0
0 -0.25 0
-0.5 -0.5 0
-0.25 -0.5 0
0 -0.5 0
0.25 -0.25 0.25
0.25 -0.25 0.5
0.5 -0.25 0.25
0.5 -0.25 0.5
0.25 -0.5 0.25
0.25 -0.5 0.5
0.5 -0.5 0.25
0.5 -0.5 0.5
0.25 -0.25 0
0.5 -0.25 0
0.25 -0.5 0
0.5 -0.5 0
-0.5 0.375 -0.125
-0.375 0.375 -0.125
-0.5 0.5 -0.125
-0.375 0.5 -0.125
-0.5 0.375 0
-0.375 0.375 0
-0.375 0.5 0
-0.25 0.375 -0.125
-0.25 0.5 -0.125
-0.25 0.375 0
-0.5 0.25 -0.125
-0.375 0.25 -0.125
-0.375 0.25 0
-0.25 0.25 -0.125
-0.5 0.375 -0.25
-0.375 0.375 -0.25
-0.5 0.5 -0.25
-0.375 0.5 -0.25
-0.25 0.375 -0.25
-0.25 0.5 -0.25
-0.5 0.25 -0.25
-0.375 0.25 -0.25
-0.25 0.25 -0.25
-0.125 0.375 -0.125
-0.125 0.5 -0.125
-0.125 0.375 0
-0.125 0.5 0
0 0.375 -0.125
0 0.5 -0.125
0 0.375 0
-0.125 0.25 -0.125
-0.125 0.25 0
0 0.25 -0.125
-0.125 0.375 -0.25
-0.125 0.5 -0.25
0 0.375 -0.25
0 0.5 -0.25
-0.125 0.25 -0.25
0 0.25 -0.25
-0.5 0.125 -0.125
-0.375 0.125 -0.125
-0.5 0.125 0
-0.375 0.125 0
-0.25 0.125 -0.125
-0.25 0.125 0
-0.5 0 -0.125
-0.375 0 -0.125
-0.375 0 0
-0.25 0 -0.125
-0.5 0.125 -0.25
-0.375 0.125 -0.25
-0.25 0.125 -0.25
-0.5 0 -0.25
-0.375 0 -0.25
-0.25 0 -0.25
-0.125 0.125 -0.125
-0.125 0.125 0
0 0.125 -0.125
0 0.125 0
-0.125 0 -0.125
-0.125 0 0
0 0 -0.125
-0.125 0.125 -0.25
0 0.125 -0.25
-0.125 0 -0.25
0 0 -0.25
-0.5 0.375 -0.375
-0.375 0.375 -0.375
-0.5 0.5 -0.375
-0.375 0.5 -0.375
-0.25 0.375 -0.375
-0.25 0.5 -0.375
-0.5 0.25 -0.375
-0.375 0.25 -0.375
-0.25 0.25 -0.375
-0.5 0.375 -0.5
-0.375 0.375 -0.5
-0.5 0.5 -0.5
-0.375 0.5 -0.5
-0.25 0.375 -0.5
-0.25 0.5 -0.5
-0.5 0.25 -0.5
-0.375 0.25 -0.5
-0.375 0.3125 -0.4375
-0.3125 0.3125 -0.4375
-0.375 0.375 -0.4375
-0.3125 0.375 -0.4375
-0.375 0.3125 -0.375
-0.3125 0.3125 -0.375
-0.3125 0.375 -0.375
-0.25 0.3125 -0.4375
-0.25 0.375 -0.4375
-0.25 0.3125 -0.375
-0.375 0.25 -0.4375
-0.3125 0.25 -0.4375
-0.3125 0.25 -0.375
-0.25 0.25 -0.4375
-0.375 0.3125 -0.5
-0.3125 0.3125 -0.5
-0.3125 0.375 -0.5
-0.25 0.3125 -0.5
-0.3125 0.25 -0.5
-0.25 0.25 -0.5
-0.125 0.375 -0.375
-0.125 0.5 -0.375
0 0.375 -0.375
0 0.5 -0.375
-0.25 0.3125 -0.3125
-0.1875 0.3125 -0.3125
-0.25 0.375 -0.3125
-0.1875 0.375 -0.3125
-0.25 0.3125 -0.25
-0.1875 0.3125 -0.25
-0.1875 0.375 -0.25
-0.125 0.3125 -0.3125
-0.125 0.375 -0.3125
-0.125 0.3125 -0.25
-0.25 0.25 -0.3125
-0.1875 0.25 -0.3125
-0.1875 0.25 -0.25
-0.125 0.25 -0.3125
-0.1875 0.3125 -0.375
-0.1875 0.375 -0.375
-0.125 0.3125 -0.375
-0.1875 0.25 -0.375
-0.125 0.25 -0.375
-0.0625 0.3125 -0.3125
-0.0625 0.375 -0.3125
-0.0625 0.3125 -0.25
-0.0625 0.375 -0.25
0 0.3125 -0.3125
0 0.375 -0.3125
0 0.3125 -0.25
-0.0625 0.25 -0.3125
-0.0625 0.25 -0.25
0 0.25 -0.3125
-0.0625 0.3125 -0.375
-0.0625 0.375 -0.375
0 0.3125 -0.375
-0.0625 0.25 -0.375
0 0.25 -0.375
-0.125 0.375 -0.5
-0.125 0.5 -0.5
0 0.375 -0.5
0 0.5 -0.5
-0.1875 0.3125 -0.4375
-0.1875 0.375 -0.4375
-0.125 0.3125 -0.4375
-0.125 0.375 -0.4375
-0.1875 0.25 -0.4375
-0.125 0.25 -0.4375
-0.1875 0.3125 -0.5
-0.1875 0.375 -0.5
-0.125 0.3125 -0.5
-0.1875 0.25 -0.5
-0.125 0.25 -0.5
-0.0625 0.3125 -0.4375
-0.0625 0.375 -0.4375
0 0.3125 -0.4375
0 0.375 -0.4375
-0.0625 0.25 -0.4375
0 0.25 -0.4375
-0.0625 0.3125 -0.5
-0.0625 0.375 -0.5
0 0.3125 -0.5
-0.0625 0.25 -0.5
0 0.25 -0.5
-0.5 0.125 -0.375
-0.375 0.125 -0.375
-0.375 0.1875 -0.3125
-0.3125 0.1875 -0.3125
-0.375 0.25 -0.3125
-0.3125 0.25 -0.3125
-0.375 0.1875 -0.25
-0.3125 0.1875 -0.25
-0.3125 0.25 -0.25
-0.25 0.1875 -0.3125
-0.25 0.1875 -0.25
-0.375 0.125 -0.3125
-0.3125 0.125 -0.3125
-0.3125 0.125 -0.25
-0.25 0.125 -0.3125
-0.375 0.1875 -0.375
-0.3125 0.1875 -0.375
-0.25 0.1875 -0.375
-0.3125 0.125 -0.375
-0.25 0.125 -0.375
-0.5 0 -0.375
-0.375 0 -0.375
-0.375 0.0625 -0.3125
-0.3125 0.0625 -0.3125
-0.375 0.0625 -0.25
-0.3125 0.0625 -0.25
-0.25 0.0625 -0.3125
-0.25 0.0625 -0.25
-0.375 0 -0.3125
-0.3125 0 -0.3125
-0.3125 0 -0.25
-0.25 0 -0.3125
-0.375 0.0625 -0.375
-0.3125 0.0625 -0.375
-0.25 0.0625 -0.375
-0.3125 0 -0.375
-0.25 0 -0.375
-0.5 0.125 -0.5
-0.375 0.125 -0.5
-0.375 0.1875 -0.4375
-0.3125 0.1875 -0.4375
-0.25 0.1875 -0.4375
-0.375 0.125 -0.4375
-0.3125 0.125 -0.4375
-0.3125 0.15625 -0.40625
-0.28125 0.15625 -0.40625
-0.3125 0.1875 -0.40625
-0.28125 0.1875 -0.40625
-0.3125 0.15625 -0.375
-0.28125 0.15625 -0.375
-0.28125 0.1875 -0.375
-0.25 0.15625 -0.40625
-0.25 0.1875 -0.40625
-0.25 0.15625 -0.375
-0.3125 0.125 -0.40625
-0.28125 0.125 -0.40625
-0.28125 0.125 -0.375
-0.25 0.125 -0.40625
-0.3125 0.15625 -0.4375
-0.28125 0.15625 -0.4375
-0.28125 0.1875 -0.4375
-0.25 0.15625 -0.4375
-0.28125 0.125 -0.4375
-0.25 0.125 -0.4375
-0.375 0.1875 -0.5
-0.3125 0.1875 -0.5
-0.3125 0.21875 -0.46875
-0.28125 0.21875 -0.46875
-0.3125 0.25 -0.46875
-0.28125 0.25 -0.46875
-0.3125 0.21875 -0.4375
-0.28125 0.21875 -0.4375
-0.28125 0.25 -0.4375
-0.25 0.21875 -0.46875
-0.25 0.25 -0.46875
-0.25 0.21875 -0.4375
-0.3125 0.1875 -0.46875
-0.28125 0.1875 -0.46875
-0.25 0.1875 -0.46875
-0.3125 0.21875 -0.5
-0.28125 0.21875 -0.5
-0.28125 0.25 -0.5
-0.25 0.21875 -0.5
-0.28125 0.1875 -0.5
-0.25 0.1875 -0.5
-0.3125 0.125 -0.5
-0.3125 0.15625 -0.46875
-0.28125 0.15625 -0.46875
-0.25 0.15625 -0.46875
-0.3125 0.125 -0.46875
-0.28125 0.125 -0.46875
-0.25 0.125 -0.46875
-0.3125 0.15625 -0.5
-0.28125 0.15625 -0.5
-0.25 0.15625 -0.5
-0.28125 0.125 -0.5
-0.25 0.125 -0.5
-0.5 0 -0.5
-0.375 0 -0.5
-0.375 0.0625 -0.4375
-0.3125 0.0625 -0.4375
-0.3125 0.09375 -0.40625
-0.28125 0.09375 -0.40625
-0.3125 0.09375 -0.375
-0.28125 0.09375 -0.375
-0.25 0.09375 -0.40625
-0.25 0.09375 -0.375
-0.3125 0.0625 -0.40625
-0.28125 0.0625 -0.40625
-0.28125 0.0625 -0.375
-0.25 0.0625 -0.40625
-0.3125 0.09375 -0.4375
-0.28125 0.09375 -0.4375
-0.25 0.09375 -0.4375
-0.28125 0.0625 -0.4375
-0.25 0.0625 -0.4375
-0.375 0 -0.4375
-0.3125 0 -0.4375
-0.3125 0.03125 -0.40625
-0.28125 0.03125 -0.40625
-0.3125 0.03125 -0.375
-0.28125 0.03125 -0.375
-0.25 0.03125 -0.40625
-0.25 0.03125 -0.375
-0.3125 0 -0.40625
-0.28125 0 -0.40625
-0.28125 0 -0.375
-0.25 0 -0.40625
-0.3125 0.03125 -0.4375
-0.28125 0.03125 -0.4375
-0.25 0.03125 -0.4375
-0.28125 0 -0.4375
-0.25 0 -0.4375
-0.375 0.0625 -0.5
-0.3125 0.0625 -0.5
-0.3125 0.09375 -0.46875
-0.28125 0.09375 -0.46875
-0.25 0.09375 -0.46875
-0.3125 0.0625 -0.46875
-0.28125 0.0625 -0.46875
-0.25 0.0625 -0.46875
-0.3125 0.09375 -0.5
-0.28125 0.09375 -0.5
-0.25 0.09375 -0.5
-0.28125 0.0625 -0.5
-0.25 0.0625 -0.5
-0.3125 0 -0.5
-0.3125 0.03125 -0.46875
-0.28125 0.03125 -0.46875
-0.25 0.03125 -0.46875
-0.3125 0 -0.46875
-0.28125 0 -0.46875
-0.25 0 -0.46875
-0.3125 0.03125 -0.5
-0.28125 0.03125 -0.5
-0.25 0.03125 -0.5
-0.28125 0 -0.5
-0.25 0 -0.5
-0.1875 0.1875 -0.3125
-0.1875 0.1875 -0.25
-0.125 0.1875 -0.3125
-0.125 0.1875 -0.25
-0.1875 0.125 -0.3125
-0.1875 0.125 -0.25
-0.125 0.125 -0.3125
-0.1875 0.1875 -0.375
-0.125 0.1875 -0.375
-0.25 0.15625 -0.34375
-0.21875 0.15625 -0.34375
-0.25 0.1875 -0.34375
-0.21875 0.1875 -0.34375
-0.25 0.15625 -0.3125
-0.21875 0.15625 -0.3125
-0.21875 0.1875 -0.3125
-0.1875 0.15625 -0.34375
-0.1875 0.1875 -0.34375
-0.1875 0.15625 -0.3125
-0.25 0.125 -0.34375
-0.21875 0.125 -0.34375
-0.21875 0.125 -0.3125
-0.1875 0.125 -0.34375
-0.21875 0.15625 -0.375
-0.21875 0.1875 -0.375
-0.1875 0.15625 -0.375
-0.21875 0.125 -0.375
-0.1875 0.125 -0.375
-0.15625 0.15625 -0.34375
-0.15625 0.1875 -0.34375
-0.15625 0.15625 -0.3125
-0.15625 0.1875 -0.3125
-0.125 0.15625 -0.34375
-0.125 0.1875 -0.34375
-0.125 0.15625 -0.3125
-0.15625 0.125 -0.34375
-0.15625 0.125 -0.3125
-0.125 0.125 -0.34375
-0.15625 0.15625 -0.375
-0.15625 0.1875 -0.375
-0.125 0.15625 -0.375
-0.15625 0.125 -0.375
-0.125 0.125 -0.375
-0.0625 0.1875 -0.3125
-0.0625 0.1875 -0.25
0 0.1875 -0.3125
0 0.1875 -0.25
-0.0625 0.125 -0.3125
-0.0625 0.125 -0.25
0 0.125 -0.3125
-0.0625 0.1875 -0.375
0 0.1875 -0.375
-0.09375 0.15625 -0.34375
-0.09375 0.1875 -0.34375
-0.09375 0.15625 -0.3125
-0.09375 0.1875 -0.3125
-0.0625 0.15625 -0.34375
-0.0625 0.1875 -0.34375
-0.0625 0.15625 -0.3125
-0.09375 0.125 -0.34375
-0.09375 0.125 -0.3125
-0.0625 0.125 -0.34375
-0.09375 0.15625 -0.375
-0.09375 0.1875 -0.375
-0.0625 0.15625 -0.375
-0.09375 0.125 -0.375
-0.0625 0.125 -0.375
0 0.125 -0.375
-0.1875 0.0625 -0.3125
-0.1875 0.0625 -0.25
-0.125 0.0625 -0.3125
-0.125 0.0625 -0.25
-0.1875 0 -0.3125
-0.1875 0 -0.25
-0.125 0 -0.3125
-0.25 0.09375 -0.34375
-0.21875 0.09375 -0.34375
-0.25 0.09375 -0.3125
-0.21875 0.09375 -0.3125
-0.1875 0.09375 -0.34375
-0.1875 0.09375 -0.3125
-0.25 0.0625 -0.34375
-0.21875 0.0625 -0.34375
-0.21875 0.0625 -0.3125
-0.1875 0.0625 -0.34375
-0.21875 0.09375 -0.375
-0.1875 0.09375 -0.375
-0.21875 0.0625 -0.375
-0.1875 0.0625 -0.375
-0.15625 0.09375 -0.34375
-0.15625 0.09375 -0.3125
-0.125 0.09375 -0.34375
-0.125 0.09375 -0.3125
-0.15625 0.0625 -0.34375
-0.15625 0.0625 -0.3125
-0.125 0.0625 -0.34375
-0.15625 0.09375 -0.375
-0.125 0.09375 -0.375
-0.15625 0.0625 -0.375
-0.125 0.0625 -0.375
-0.25 0.03125 -0.34375
-0.21875 0.03125 -0.34375
-0.25 0.03125 -0.3125
-0.21875 0.03125 -0.3125
-0.1875 0.03125 -0.34375
-0.1875 0.03125 -0.3125
-0.25 0 -0.34375
-0.21875 0 -0.34375
-0.21875 0 -0.3125
-0.1875 0 -0.34375
-0.21875 0.03125 -0.375
-0.1875 0.03125 -0.375
-0.21875 0 -0.375
-0.1875 0 -0.375
-0.15625 0.03125 -0.34375
-0.15625 0.03125 -0.3125
-0.125 0.03125 -0.34375
[...]
POINT_DATA 47028
SCALARS U float
LOOKUP_TABLE default
1
1.00055
1
1.0005
1
1.00041
1
1.00039
1.00059
1.00056
1.00049
1.00047
1
1.00059
1
1.00043
1.00062
1.0005
1
1.00114
1
1.00092
1.00097
1.00087
1
1.00148
1.00109
1.00034
1.00035
1.00033
1.00033
1.00012
1.00014
1.00019
1.00019
1.00033
1.00033
1.00011
1.00018
1.00031
1.00036
1.00006
1.00009
1.00024
1.00003
1
1.00053
1
1.00041
1.00058
1.00048
1
1.00049
1
1.00038
1.00054
1.00046
1
1.0011
1.00094
1
1.00089
1.00083
1.00034
1.00033
1.00013
1.00019
1.00034
1.00033
1.00015
1.00019
1.00031
1.00007
1.00033
1.00012
1
1.00073
1
1.00069
1
1.00052
1.00046
1.00146
1.00133
1.00103
1
1.00082
1.00057
1.00184
1
1.00097
1
1.00092
1.0021
1.00187
1
1.00095
1.0031
1.00171
1.00155
1.00098
1.0009
1.00117
1.00112
1.00092
1.00219
1.00106
1.0013
1.00258
1.00217
1.00143
1.00141
1.00406
1.00149
1
1.00091
1
1.00066
1.00239
1.00131
1
1.00099
1.00074
1.00271
1
1.0006
1.00456
1
1.00038
1.00546
1.00292
1.00117
1.00143
1.00103
1.00331
1.00129
1.00149
1.00673
1.00118
1.00858
1.00081
1
1.00109
1
1.00111
1.00303
1.00245
1
1.00047
1.00472
1
1.00107
1
1.0012
1.00343
1.00275
1
0.999368
1.0005
1.00186
1.00108
1.00216
1.00078
1.00233
1.00206
1.00427
1.00323
1.00388
0.999917
1.0008
1.00259
1.00544
1.00022
1.00174
1.00225
1.00438
1.00034
1.00481
1.00387
1.00287
1.00161
1.00168
1.00324
1.00428
1.00257
1.0029
1.0026
1.00296
1.00234
1.00414
1.00322
1.00332
1.00391
1.00601
1.00358
1.00573
1.00562
1.00345
1.00535
1.00903
1.00837
1.00281
1.00237
1.00239
1.002
1.00132
1.00152
1.00146
1.00333
1.00277
1.00113
1.00333
1.00274
1.00119
1.0038
1.00077
1.00465
1.00324
1.00154
1.00179
1.00688
1.00374
1.0065
1.00426
1.01344
1.0119
1.00743
1.00404
1.00701
1.01593
1.01372
1.00369
1.00292
1.00128
1.00158
1.00368
1.00016
1.00377
1.0031
1.0012
1.00299
1.00001
1
0.997404
0.999854
1.00164
1.00071
1.00231
1.00077
1.0023
1.00202
1.00452
1.00383
0.999002
1.00105
1.00258
1.00546
0.998935
1.0005
1.00589
0.998023
1.0063
1
0.994411
0.998199
1.00041
1.00049
1.00275
1.00608
1.00501
0.997397
1.00008
1.00292
1.00628
0.995907
0.995354
1.00555
0.993609
1.00352
1
0.987974
0.996303
0.99605
1.00242
0.992689
0.985124
0.994925
0.999
0.998277
1.00122
0.999264
1.00268
1.0032
1.00331
1.00415
1.00609
0.991574
0.995836
1.00216
1.00086
0.990587
0.991359
0.999235
0.99545
0.981587
0.98202
0.993671
0.994098
0.997824
1.00001
1.00057
1.00285
0.998427
1.00118
1.00312
1.00417
1.00512
1.00393
0.995074
0.994562
0.998196
0.997221
0.999831
1.00258
1.0033
0.994013
0.996145
0.977066
0.988084
0.983934
0.979868
0.981095
0.967222
0.945046
0.985582
0.982131
0.974545
0.963439
0.931706
1
0.976301
0.989022
0.974016
0.988129
0.992724
0.996688
1.00131
0.998751
1.00592
0.984685
0.989914
1.00045
0.996652
0.97957
0.972293
0.972373
0.965734
0.965847
0.985356
0.96578
0.98219
0.986883
0.994481
0.999507
0.993257
1.00453
0.979694
0.984246
0.998562
0.989584
0.969898
0.959263
0.956449
0.951646
0.939756
0.982138
0.960832
0.974259
0.951791
0.921723
0.967424
0.942299
0.911163
0.968949
0.946435
0.902634
0.936472
0.88909
0.949941
0.962642
0.933701
0.893283
0.95786
0.922401
0.861211
0.955386
0.927557
0.870483
0.916167
0.841084
1.00852
1.00461
1.00797
1.0054
1.01243
1.00565
1.01154
1.01615
1.01442
1.00554
1.01013
1.0052
1.00877
1.00499
1.00773
1.00652
1.01382
1.01234
1.01047
1.00588
1.01217
1.00894
1.0172
1.01293
1.01102
1.02047
1.01534
1.02759
1.01538
1.01176
1.01011
1.00824
1.01294
1.01119
1.00976
1.01925
1.01199
1.01616
1.02352
1.01529
1.01773
1.03187
1.02329
1.00357
1.00337
1.00065
1.00134
1.00453
1.00396
0.999801
1.00369
0.999233
1.00861
1.00741
1.0069
1.00577
1.00363
1.00363
1.00405
1.01056
1.00803
1.00364
1.00977
1.00905
1.00322
1.01095
1.00274
0.99608
1.0167
1.00633
1.01515
1.00765
1.01906
1.00702
1.01701
1.00585
1.01414
1.00577
1.01017
1.02072
1.01457
1.00581
1.01532
1.01139
1.02437
1.01829
1.03341
1.01987
1.03855
1.02341
1.01396
1.01933
1.01335
1.0278
1.01593
1.02196
1.03909
1.0279
1.04535
1.0322
1.00536
1.01615
1.00618
1.01203
1.02765
1.01788
1.0049
1.01689
1.01267
1.02912
1.0201
1.04452
1.0201
1.04898
1.03133
1.01698
1.02425
1.01608
1.03292
1.01804
1.02533
1.05419
1.0362
1.06095
1.0387
1.00464
1.00433
0.9989
1.001
1.0046
1.00469
0.998549
1.01192
1.00897
1.00314
1.00458
1.01226
1.0099
1.00264
1.01249
1.00169
1.01323
1.00064
0.993008
1.01259
1.01035
1.00189
1.00462
1.01306
1.01081
1.00114
1.01315
0.999159
1.01232
0.997683
0.992034
1.00462
1.01005
1.00508
1.00816
1.00531
1.00895
1.00687
1.01552
1.01123
1.01259
1.01242
1.02211
1.01176
1.00944
1.01994
1.01318
1.03136
1.01729
1.01068
1.01199
1.0087
1.01368
1.01013
1.01139
1.02544
1.01887
1.02263
1.01267
1.01691
1.03787
1.02496
1.01388
1.03307
1.01616
1.04658
1.01238
1.05378
1.00182
1.01106
1.02942
1.01313
1.02828
1.01502
1.02742
1.02348
1.05044
1.04343
1.03983
1.00899
1.03205
1.03137
1.06106
1.0071
1.03082
1.03308
1.07
1.02829
1.08143
1.03956
1.02655
1.03193
1.03549
1.02677
1.02916
1.02403
1.02586
1.022
1.03527
1.03154
1.0277
1.03709
1.04229
1.02973
1.04202
1.04832
1.03632
1.04849
1.05901
1.05882
1.03182
1.02684
1.0241
1.02062
1.02575
1.02214
1.02051
1.03734
1.02758
1.02936
1.04237
1.03305
1.03099
1.04968
1.03544
1.07005
1.03725
1.06647
1.04912
1.06786
1.05481
1.0876
1.08697
1.09614
1.06192
1.09373
1.06573
1.08201
1.06022
1.07076
1.05575
1.06639
1.05846
1.09308
1.08131
1.07704
1.07125
1.09164
1.07433
1.11017
1.07571
1.10183
1.08307
1.11459
1.11539
1.14701
1.09443
1.08105
1.07722
1.06716
1.09224
1.08079
1.07741
1.11092
1.08729
1.10594
1.11045
1.09493
1.10648
1.12677
1.11868
1.05713
1.04335
1.03663
1.0319
1.06992
1.04145
1.07952
1.05365
1.04371
1.08749
1.07456
1.07047
1.06249
1.07507
1.06833
1.06352
1.09963
1.07844
1.08227
1.10567
1.08662
1.09205
1.12387
1.10189
1.05901
1.05425
1.05128
1.04688
1.04127
1.04017
1.03904
1.06163
1.05568
1.04236
1.06922
1.06162
1.04349
1.06895
1.04328
1.01243
1.00991
1.02401
1.01469
1.0129
1.04351
1.01208
1.01037
1.02548
1.01012
1.04781
1.02796
1.01375
1.01961
1.01281
1.0547
1.03064
1.03014
1.01483
1.02053
1.06344
1.03245
0.992909
1.00784
1.0278
1.01304
1.02524
1.01278
1.02768
1.02227
1.05008
1.03744
1.04257
1.00264
1.02912
1.06971
1.0029
1.02998
1.02821
1.06082
1.02574
1.09572
0.975596
0.98282
0.987659
0.995151
0.988735
0.997918
1.00391
0.995559
0.963533
0.966758
0.991922
0.976605
0.962457
0.958526
0.986389
0.961273
0.926694
0.905498
1.02667
1.10396
1.01295
1.02468
1.05873
1.02875
1.05786
1.02955
1.05263
1.05041
1.09726
1.08698
1.02062
1.05665
1.05486
1.10509
1.01981
1.06467
1.06532
1.12381
1.0588
1.14385
0.991214
1.01819
1.05494
1.02743
1.05507
1.02789
1.05737
1.04941
1.10061
1.08271
1.08684
1.00894
1.05832
1.13299
1.00848
1.05728
1.06073
1.12457
1.04381
1.18374
0.959734
0.974766
0.978416
0.99368
0.986082
1.00295
1.01112
1.00068
0.941051
0.95427
0.994775
0.975468
0.933385
0.933291
0.976243
0.951103
0.897537
0.900219
1.05422
1.17955
1.0424
1.22114
1.00481
1.04029
1.09963
1.05106
1.10471
1.05627
1.10627
1.09565
1.1928
1.15836
1.15627
1.02951
1.10468
1.11689
1.23462
1.02431
1.10339
1.11377
1.23699
1.11405
1.29424
0.981186
1.02065
1.11126
1.04831
1.12433
1.2726
1.20034
1.01179
1.15601
1.13177
1.30023
0.992997
1.12675
1.33976
1.18026
1.37933
0.987188
0.991218
0.997171
1.00434
0.989032
0.995968
1.00555
1.0028
1.01151
0.977206
0.971596
0.976585
0.985345
0.990371
1.00313
1.00022
0.969954
0.970529
1.02724
1.02858
1.07123
1.04566
1.0129
1.11629
1.02403
1.02896
1.0716
1.0015
1.01642
1.05119
1.02564
1.04853
1.02007
1.05692
1.04924
1.0906
1.07142
1.09376
1.0072
1.04811
1.06459
1.10891
1.01277
1.04996
1.04782
1.08952
1.0433
1.10331
0.957791
0.939226
0.916584
0.938376
0.895743
0.821622
0.953125
0.936066
0.905326
0.891073
0.80659
0.961838
0.976463
0.984747
1.00203
0.977091
0.992784
1.00932
1.00278
1.01932
0.938929
0.934967
0.951409
0.946585
0.95698
0.994741
0.982547
0.903347
0.900128
1.05007
1.06266
1.15771
1.106
0.998138
1.03732
1.09919
1.05367
1.0974
1.05054
1.10235
1.09092
1.17519
1.14114
1.15415
1.02097
1.0949
1.22395
1.0241
1.09551
1.10389
1.20386
1.06325
1.27156
1.0349
1.17637
0.929193
1.00308
1.08461
1.04248
1.10476
1.22166
1.16704
0.963666
1.03038
1.27655
0.982047
1.07964
1.10564
1.23273
1.02187
1.28969
0.901244
0.880234
0.849748
0.86356
0.825937
0.776169
0.869103
0.834177
0.766945
0.766513
0.67103
0.77067
0.954356
1.05898
1.22421
0.887739
1.01014
1.16966
0.884404
0.901404
1.02963
1.12878
1.07908
1.16342
1.07694
1.15051
1.15943
1.26529
1.24775
1.22408
0.98019
0.9989
1.14159
1.13643
0.982327
1.08812
1.1674
1.25092
0.838283
0.989469
0.65328
0.90595
0.856518
1.03456
1.11575
1.01437
1.19693
0.83171
0.804502
1.0899
0.985473
0.777342
0.587383
0.661973
0.498414
0.605589
0.86931
0.880793
0.900425
0.894082
0.925661
0.959329
0.977955
0.894844
0.838194
0.851055
0.940703
0.869698
0.812958
0.768113
0.810209
0.723267
0.726017
0.675865
0.995858
1.17824
0.990894
1.21132
0.582131
0.810353
0.772282
1.003
1.08847
0.970875
1.17395
0.788995
0.761495
1.08705
0.975061
0.617706
0.446905
0.56878
0.42708
0.562863
0.555234
0.781029
0.758243
0.993376
1.09408
0.985686
1.19478
0.773064
0.760287
1.10111
1.00132
0.568683
0.417349
0.564705
0.413437
0.571682
0.867057
0.851108
0.925768
0.944717
0.900578
0.892491
0.974774
0.816437
0.808346
0.750415
0.692483
0.833536
0.815731
0.914661
0.778557
0.690621
0.614296
0.795434
0.947618
1.04847
1.04682
1.16043
1.2375
1.27405
0.848419
0.753923
0.906484
0.912908
1.0338
1.15346
1.23885
0.720202
0.891283
0.460288
0.702602
0.463679
0.337697
0.556784
0.35027
0.242703
0.627861
0.414939
0.295022
0.294134
0.194656
0.765226
0.903227
1.02702
1.02612
1.15462
1.23514
1.28312
0.78033
0.706946
0.88253
0.893546
1.02142
1.15578
1.23514
0.700874
0.785665
0.417424
0.609593
0.396793
0.281431
0.438856
0.272024
0.177043
0.591325
0.391572
0.27513
0.265406
0.17785
0.460415
0.630311
0.359069
0.513692
0.287763
0.181969
0.4706
0.261717
0.163464
0.409678
0.226384
0.129831
0.197493
0.108917
0.56814
0.31805
0.453621
0.247884
0.155115
0.436642
0.240232
0.152386
0.338559
0.181658
0.0988664
0.172277
0.094612
0.537355
0.308116
0.386224
0.201254
0.10955
0.333592
0.170275
0.086783
0.36277
0.192964
0.108381
0.160674
0.0841992
0.261296
0.311633
0.153092
0.0755543
0.289673
0.142587
0.070291
0.284706
0.142271
0.0716297
0.130574
0.0651211
0.942256
0.943581
0.973557
0.990378
0.962398
0.910955
0.884923
0.870747
0.937928
0.940591
0.986014
0.955298
0.881002
0.864953
1.01415
1.16012
0.928955
0.95987
0.972472
0.998498
0.941337
0.961692
1.00872
0.988905
1.02452
0.885437
0.893879
0.922701
0.916572
0.94018
0.988274
0.963788
0.892087
0.913427
1.07462
1.09639
1.24523
1.16825
1.02788
1.29193
1.05236
1.08713
1.20814
1.00849
1.21374
1.00355
1.12033
0.891929
0.955764
1.02376
1.00885
1.07454
1.13973
1.14023
0.902678
0.966701
1.11416
0.947741
1.01346
1.06194
1.11542
0.950236
1.07432
0.862531
0.811582
0.738846
0.814106
0.737389
0.625025
0.855958
0.8063
0.734163
0.731108
0.610705
0.819166
0.796062
0.765748
0.752895
0.684888
0.616881
0.804797
0.789484
0.774798
0.679156
0.619466
0.761674
0.89416
1.01726
1.02487
1.15784
1.2355
1.29081
0.76345
0.699134
0.452174
0.894775
0.91691
1.1599
0.939045
0.673918
0.586162
0.427097
0.592855
0.396618
0.2726
0.422261
0.271655
0.191251
0.594385
0.393589
0.227837
0.282582
0.150759
0.79476
0.699083
0.518139
0.625417
0.424119
0.778217
0.71042
0.213313
0.642622
0.472618
0.308609
0.108975
0.656449
0.560291
0.746921
0.464132
0.37366
0.229181
0.441479
0.533914
0.308213
0.365213
0.197279
0.119284
0.308165
0.162361
0.091517
0.367655
0.21384
0.119462
0.174311
0.0995431
0.450947
0.252013
0.28241
0.14142
0.0756084
0.256655
0.127611
0.0664933
0.280113
0.148175
0.0774978
0.130152
0.063816
0.530473
0.367151
0.40515
0.237077
0.0958281
0.337682
0.19071
0.0718934
0.442645
0.308751
0.174858
0.243842
0.120534
0.282292
0.302417
0.159504
0.0530593
0.267153
0.137177
0.0405843
0.324721
0.209522
0.0943218
0.175201
0.0681097
0.802177
0.785047
0.86785
0.885264
0.777341
0.736504
0.690765
0.640051
0.799558
0.782987
0.878441
0.773874
0.690207
0.637547
0.793988
0.869876
0.567455
0.517495
0.797922
0.890082
0.602266
0.6228
0.677185
0.608013
0.681936
0.606204
0.53175
0.617865
0.536928
0.533252
0.446765
0.672434
0.606605
0.526513
0.533734
0.439725
0.41432
0.333431
0.316569
0.216199
0.454989
0.434944
0.352537
0.307651
1.06403
1.04186
1.04827
1.03462
1.06522
1.04629
1.05396
1.09267
1.09182
1.07984
1.04911
1.08168
1.12685
1.12202
1.05485
1.03704
1.04253
1.03142
1.03467
1.0278
1.03111
1.07765
1.04198
1.06673
1.04267
1.0377
1.10451
1.0421
1.13623
1.12501
1.1301
1.10158
1.13878
1.11618
1.16186
1.18551
1.1692
1.12009
1.16518
1.23065
1.20988
1.12453
1.11278
1.12058
1.10937
1.1297
1.11558
1.13781
1.13062
1.13469
1.1283
1.11785
1.13076
1.09624
1.10064
1.08119
1.13429
1.10976
1.11445
1.17852
1.16415
1.16355
1.11128
1.15865
1.23379
1.18518
1.12811
1.10834
1.11143
1.09225
1.12632
1.10692
1.10842
1.14502
1.14226
1.14757
1.12443
1.14668
1.15977
1.15773
1.25069
1.20388
1.16709
1.20972
1.15168
1.18081
1.13383
1.16688
1.14651
1.2494
1.20994
1.19993
1.18249
1.23864
1.18725
1.28886
1.27359
1.21512
1.29888
1.31813
1.34707
1.22758
1.25563
1.18226
1.18544
1.15576
1.25585
1.20616
1.2146
1.32024
1.31612
1.29525
1.20876
1.26119
1.35045
1.29089
1.22989
1.19041
1.19931
1.17133
1.18859
1.17466
1.18401
1.27242
1.22728
1.20252
1.21974
1.20948
1.19317
1.23826
1.20116
1.383
1.38351
1.44535
1.45725
1.40584
1.33942
1.46704
1.40121
1.31918
1.2573
1.23183
1.21573
1.37415
1.28732
1.24943
1.27272
1.21173
1.32313
1.23386
1.14978
1.1425
1.11929
1.11086
1.1453
1.12031
1.16181
1.17503
1.17513
1.17683
1.12996
1.14754
1.13454
1.14801
1.17344
1.11239
1.15671
1.17323
1.12539
1.14897
1.10548
1.10137
1.11851
1.04836
1.12909
1.10419
1.11569
1.09902
1.15422
1.13968
1.15527
1.12176
1.14899
1.1824
1.20057
1.08168
1.07253
1.04354
1.04604
1.08488
1.04104
1.10142
1.08344
1.04358
1.11464
1.0388
1.12689
1.099
1.10325
1.08474
1.11504
1.09108
1.09808
1.15617
1.15664
1.1531
1.11326
1.14488
1.21775
1.23116
1.08283
1.06656
1.07163
1.05981
1.04382
1.04204
1.04517
1.10081
1.04437
1.09206
1.07331
1.03841
1.11622
1.02095
1.19998
1.22226
1.20491
1.28586
1.1407
1.16425
1.15
1.16848
1.14238
1.16023
1.14921
1.20103
1.18696
1.17808
1.1314
1.14507
1.17124
1.20316
1.13902
1.20052
1.18774
1.28532
1.08212
0.955315
1.23738
1.19043
1.18376
1.1564
1.22728
1.1939
1.18945
1.30976
1.21112
1.28605
1.34974
1.22446
1.30364
1.12561
1.04705
1.11876
1.13657
1.12668
1.16456
1.2102
1.20245
1.10612
1.14037
1.15789
1.22303
1.11084
1.06363
0.988695
1.15895
1.2806
1.33284
1.22825
1.32183
1.25406
1.32121
1.24539
1.35453
1.08934
1.2364
1.07924
1.14846
1.20668
1.26399
1.25646
1.30307
1.21768
1.3213
1.09945
1.17323
1.27152
1.24702
0.972005
1.06105
1.04046
1.01251
1.07494
1.16119
1.2577
1.19212
1.31262
1.2979
1.17545
1.16655
1.30394
1.21569
1.32734
1.18436
0.775006
1.08633
1.04697
1.10404
1.04688
1.43339
1.44527
1.12753
1.03772
1.16363
1.02911
1.17617
1.15121
1.15181
1.12872
1.11751
1.10851
1.11417
1.20482
1.1749
1.1265
1.22451
1.17369
1.12084
1.15157
1.12547
1.00303
1.24398
1.19982
1.16049
1.14558
1.29981
1.22475
1.19778
1.18701
1.16194
1.38244
1.27352
1.07792
1.07344
1.0895
1.08263
1.02215
1.02038
1.03342
1.09397
1.09637
1.02393
1.08231
1.06425
1.01089
1.13086
1.01874
1.09559
1.05236
1.09842
1.05907
1.08601
1.10513
1.06603
1.07687
1.07827
1.09081
1.07033
1.11687
1.08771
1.10335
1.14098
1.14602
1.11483
1.08341
1.13039
1.15868
1.16519
1.15968
1.09885
1.05562
1.1001
1.1184
1.08432
1.13143
1.09722
1.16726
1.18242
1.11803
1.08523
1.13146
1.16523
1.18688
1.13656
1.09824
1.12972
1.097
1.13579
1.09926
1.12905
1.1802
1.16244
1.17406
1.13629
1.09947
1.13505
1.18322
1.17804
1.07827
1.04531
1.03688
1.03154
1.13186
1.03831
1.07904
1.04794
1.03591
1.12611
1.08896
1.11706
1.08835
1.10166
1.07865
1.10506
1.16194
1.14577
1.13497
1.12477
1.08957
1.09926
1.16221
1.1342
1.06793
1.05753
1.07133
1.05758
1.03507
1.0364
1.03759
1.08494
1.08508
1.03374
1.06684
1.05747
1.03254
1.08278
1.02917
1.2147
1.19124
1.23124
1.16513
1.17641
1.14406
1.235
1.18913
1.19867
1.30614
1.29671
1.27744
1.1862
1.27136
1.29469
1.20752
1.21233
1.18204
1.18529
1.1611
1.18897
1.17495
1.17191
1.24374
1.18708
1.23652
1.20297
1.20761
1.17232
1.16664
1.26265
1.23556
1.30895
1.20286
1.2933
1.23868
1.26212
1.14459
1.33545
1.21951
1.32337
1.27608
1.15027
1.25393
1.22604
1.22884
1.2134
1.13045
1.15807
1.28253
1.24911
1.25495
1.13541
1.16105
1.16997
1.14343
1.1723
1.14085
1.17269
1.16686
1.16279
1.15311
1.16523
1.15877
1.15367
1.165
1.17247
1.1617
1.18731
1.18061
1.17866
1.16937
1.17469
1.16494
1.15913
1.15294
1.14713
1.16929
1.15949
1.15221
1.16377
1.15875
1.16885
1.17905
1.17113
1.18472
1.18049
1.19075
1.20045
1.2029
1.20775
1.19931
1.19647
1.18521
1.17842
1.18978
1.22952
1.21801
1.21502
1.18653
1.20388
1.19582
1.18641
1.20151
1.1876
1.19916
1.21141
1.21338
1.20168
1.21934
1.21713
1.23231
1.11442
1.07893
0.88844
0.849702
1.2965
1.27409
1.21718
1.26505
1.18025
1.30042
1.21028
1.10883
1.16932
0.902344
1.30227
1.28313
1.14326
1.16061
0.925385
1.11149
1.27627
1.19905
1.30143
1.10757
1.25212
1.18782
0.872294
1.09668
0.892448
1.04629
1.25111
1.04184
0.871936
0.892883
0.951501
1.09918
0.710761
1.00143
0.893058
1.02905
0.605918
0.913175
0.663857
0.851986
0.555402
0.735698
0.982875
0.762355
0.964319
0.631012
0.869071
0.659463
0.735007
0.7618
0.630119
0.658702
1.08966
1.11822
0.930691
1.05026
1.11041
1.23007
1.17726
1.27022
1.11852
1.20803
1.1667
0.924958
1.0843
0.976504
1.04746
1.18992
1.06711
0.925111
0.979049
1.12908
1.19245
1.15968
1.21541
1.13772
1.17686
1.15265
1.03192
1.10394
1.07692
1.0991
1.16948
1.12742
1.04228
1.09348
0.805401
0.987248
0.880603
1.01018
0.711074
0.890197
0.804562
0.806556
0.88318
0.712175
0.806796
0.961083
1.04721
1.02617
1.08424
0.904222
0.990476
0.985369
0.963899
1.02839
0.906727
0.987497
0.850363
0.807513
0.869347
0.80821
0.867505
1.02167
0.551231
0.869401
0.862919
1.0143
0.527266
0.824226
0.498185
0.817605
0.471828
0.579165
0.849004
0.614022
0.828608
0.554359
0.828938
0.589805
0.578201
0.61273
0.553187
0.588058
0.870225
1.02732
0.521184
0.859855
0.883849
1.04033
0.522193
0.822832
0.463488
0.834439
0.462117
0.545849
0.833858
0.577486
0.807861
0.542732
0.838778
0.569864
0.544593
0.575236
0.541241
0.567044
0.892936
1.01527
0.883907
0.995852
0.670991
0.870211
0.768329
0.911814
0.64728
0.850224
0.74424
0.671623
0.770335
0.647475
0.746016
0.870608
0.972289
0.955202
1.03276
0.84611
0.954102
0.931782
0.873223
0.957601
0.848828
0.934466
0.631589
0.848141
0.727186
0.888422
0.621088
0.846059
0.716025
0.631224
0.728711
0.620122
0.717237
0.827619
0.946991
0.912539
1.00556
0.814611
0.939879
0.897157
0.830435
0.915472
0.817445
0.900298
1.3274
1.27623
1.17583
1.27841
1.30986
1.13347
1.33113
1.26933
1.15787
1.31411
1.11074
1.07969
1.22723
1.07868
1.17606
1.06148
1.07735
1.05154
1.20335
1.05676
1.03077
1.05534
1.32982
1.27611
1.15046
1.2691
1.30906
1.10063
1.33981
1.28289
1.15865
1.13568
1.10767
1.03907
1.20827
1.04715
1.14743
1.01696
1.04586
1.04294
1.21318
1.04949
1.01893
1.04793
1.07503
1.16372
1.07764
1.15138
1.07554
1.07815
1.06072
1.13752
1.06988
1.06138
1.07034
1.0986
1.15687
1.12357
1.16236
1.09924
1.12419
1.0961
1.14426
1.12384
1.09679
1.12463
1.05493
1.14018
1.06622
1.13293
1.05569
1.06663
1.05559
1.14284
1.06356
1.05639
1.06403
1.09339
1.14624
1.12177
1.15956
1.09405
1.12258
1.08764
1.14823
1.11546
1.0884
1.11636
1.14169
1.17285
1.14861
1.15253
1.10978
1.12306
1.14536
1.17203
1.153
1.17604
1.15227
1.16719
1.15335
1.10881
1.12996
1.12894
1.14653
1.16801
1.15849
1.12639
1.14478
1.15729
1.16769
1.15425
1.16335
1.16048
1.1682
1.15515
1.13987
1.14515
1.14504
1.1658
1.17203
1.17064
1.15408
1.15896
1.07248
1.10499
1.10239
1.12574
1.0437
1.08002
1.08145
1.07382
1.10318
1.04513
1.08234
1.11921
1.13079
1.12718
1.13584
1.10234
1.11642
1.11175
1.11977
1.12763
1.10288
1.11211
1.15094
1.14578
1.15124
1.11138
1.1328
1.09437
1.16288
1.17016
1.15625
1.16273
1.16555
1.17213
1.15735
1.14742
1.14977
1.14908
1.17469
1.17759
1.17891
1.16229
1.16554
1.16951
1.17597
1.1587
1.16631
1.17502
1.1798
1.16005
1.15123
1.15109
1.15368
1.18422
1.18562
1.19128
1.16966
1.17479
1.13007
1.1335
1.13024
1.13116
1.11403
1.11722
1.1108
1.13053
1.13094
1.11449
1.11131
1.1271
1.12698
1.12315
1.12281
1.09891
1.10288
1.0867
1.12801
1.12389
1.09905